2 
Step 0 , box:    7.100     7.100     7.100
Ar    1.775000    1.775000    1.775000
Ar    1.775000    1.775000    5.325000
2 
Step 1 , box:    7.100     7.100     7.100
Ar    1.774812    1.775027    1.775060
Ar    1.775188    1.774973    5.324940
2 
Step 2 , box:    7.100     7.100     7.100
Ar    1.774623    1.775055    1.775111
Ar    1.775377    1.774945    5.324889
2 
Step 3 , box:    7.100     7.100     7.100
Ar    1.774435    1.775082    1.775153
Ar    1.775565    1.774918    5.324847
2 
Step 4 , box:    7.100     7.100     7.100
Ar    1.774247    1.775109    1.775188
Ar    1.775753    1.774891    5.324812
2 
Step 5 , box:    7.100     7.100     7.100
Ar    1.774059    1.775136    1.775214
Ar    1.775941    1.774864    5.324786
2 
Step 6 , box:    7.100     7.100     7.100
Ar    1.773870    1.775164    1.775232
Ar    1.776130    1.774836    5.324768
2 
Step 7 , box:    7.100     7.100     7.100
Ar    1.773682    1.775191    1.775241
Ar    1.776318    1.774809    5.324759
2 
Step 8 , box:    7.100     7.100     7.100
Ar    1.773494    1.775218    1.775242
Ar    1.776506    1.774782    5.324758
2 
Step 9 , box:    7.100     7.100     7.100
Ar    1.773305    1.775246    1.775234
Ar    1.776695    1.774754    5.324766
2 
Step 10 , box:    7.100     7.100     7.100
Ar    1.773117    1.775273    1.775218
Ar    1.776883    1.774727    5.324782
2 
Step 11 , box:    7.100     7.100     7.100
Ar    1.772929    1.775300    1.775194
Ar    1.777071    1.774700    5.324806
2 
Step 12 , box:    7.100     7.100     7.100
Ar    1.772740    1.775328    1.775162
Ar    1.777260    1.774672    5.324838
2 
Step 13 , box:    7.100     7.100     7.100
Ar    1.772552    1.775355    1.775120
Ar    1.777448    1.774645    5.324880
2 
Step 14 , box:    7.100     7.100     7.100
Ar    1.772364    1.775382    1.775071
Ar    1.777636    1.774618    5.324929
2 
Step 15 , box:    7.100     7.100     7.100
Ar    1.772175    1.775409    1.775013
Ar    1.777825    1.774591    5.324987
2 
Step 16 , box:    7.100     7.100     7.100
Ar    1.771987    1.775437    1.774947
Ar    1.778013    1.774563    5.325053
2 
Step 17 , box:    7.100     7.100     7.100
Ar    1.771799    1.775464    1.774890
Ar    1.778201    1.774536    5.325110
2 
Step 18 , box:    7.100     7.100     7.100
Ar    1.771610    1.775491    1.774840
Ar    1.778390    1.774509    5.325160
2 
Step 19 , box:    7.100     7.100     7.100
Ar    1.771422    1.775519    1.774799
Ar    1.778578    1.774481    5.325201
2 
Step 20 , box:    7.100     7.100     7.100
Ar    1.771233    1.775546    1.774767
Ar    1.778767    1.774454    5.325233
2 
Step 21 , box:    7.100     7.100     7.100
Ar    1.771045    1.775573    1.774742
Ar    1.778955    1.774427    5.325258
2 
Step 22 , box:    7.100     7.100     7.100
Ar    1.770856    1.775601    1.774726
Ar    1.779144    1.774399    5.325274
2 
Step 23 , box:    7.100     7.100     7.100
Ar    1.770668    1.775628    1.774719
Ar    1.779332    1.774372    5.325281
2 
Step 24 , box:    7.100     7.100     7.100
Ar    1.770479    1.775655    1.774720
Ar    1.779521    1.774345    5.325280
2 
Step 25 , box:    7.100     7.100     7.100
Ar    1.770291    1.775683    1.774729
Ar    1.779709    1.774317    5.325271
2 
Step 26 , box:    7.100     7.100     7.100
Ar    1.770102    1.775710    1.774747
Ar    1.779898    1.774290    5.325253
2 
Step 27 , box:    7.100     7.100     7.100
Ar    1.769914    1.775737    1.774773
Ar    1.780086    1.774263    5.325227
2 
Step 28 , box:    7.100     7.100     7.100
Ar    1.769725    1.775765    1.774808
Ar    1.780275    1.774235    5.325192
2 
Step 29 , box:    7.100     7.100     7.100
Ar    1.769536    1.775792    1.774850
Ar    1.780464    1.774208    5.325150
2 
Step 30 , box:    7.100     7.100     7.100
Ar    1.769348    1.775819    1.774902
Ar    1.780652    1.774181    5.325098
2 
Step 31 , box:    7.100     7.100     7.100
Ar    1.769159    1.775847    1.774961
Ar    1.780841    1.774153    5.325039
2 
Step 32 , box:    7.100     7.100     7.100
Ar    1.768970    1.775874    1.775029
Ar    1.781030    1.774126    5.324971
2 
Step 33 , box:    7.100     7.100     7.100
Ar    1.768782    1.775901    1.775089
Ar    1.781218    1.774099    5.324911
2 
Step 34 , box:    7.100     7.100     7.100
Ar    1.768593    1.775929    1.775140
Ar    1.781407    1.774071    5.324860
2 
Step 35 , box:    7.100     7.100     7.100
Ar    1.768404    1.775956    1.775183
Ar    1.781596    1.774044    5.324817
2 
Step 36 , box:    7.100     7.100     7.100
Ar    1.768215    1.775983    1.775217
Ar    1.781785    1.774017    5.324783
2 
Step 37 , box:    7.100     7.100     7.100
Ar    1.768026    1.776011    1.775243
Ar    1.781974    1.773989    5.324757
2 
Step 38 , box:    7.100     7.100     7.100
Ar    1.767837    1.776038    1.775261
Ar    1.782163    1.773962    5.324739
2 
Step 39 , box:    7.100     7.100     7.100
Ar    1.767648    1.776066    1.775270
Ar    1.782352    1.773934    5.324730
2 
Step 40 , box:    7.100     7.100     7.100
Ar    1.767459    1.776093    1.775271
Ar    1.782541    1.773907    5.324729
2 
Step 41 , box:    7.100     7.100     7.100
Ar    1.767270    1.776120    1.775264
Ar    1.782730    1.773880    5.324736
2 
Step 42 , box:    7.100     7.100     7.100
Ar    1.767081    1.776148    1.775248
Ar    1.782919    1.773852    5.324752
2 
Step 43 , box:    7.100     7.100     7.100
Ar    1.766892    1.776175    1.775224
Ar    1.783108    1.773825    5.324776
2 
Step 44 , box:    7.100     7.100     7.100
Ar    1.766703    1.776203    1.775191
Ar    1.783297    1.773797    5.324809
2 
Step 45 , box:    7.100     7.100     7.100
Ar    1.766514    1.776230    1.775150
Ar    1.783486    1.773770    5.324850
2 
Step 46 , box:    7.100     7.100     7.100
Ar    1.766325    1.776257    1.775101
Ar    1.783675    1.773743    5.324899
2 
Step 47 , box:    7.100     7.100     7.100
Ar    1.766136    1.776285    1.775043
Ar    1.783864    1.773715    5.324957
2 
Step 48 , box:    7.100     7.100     7.100
Ar    1.765946    1.776312    1.774977
Ar    1.784054    1.773688    5.325023
2 
Step 49 , box:    7.100     7.100     7.100
Ar    1.765757    1.776340    1.774920
Ar    1.784243    1.773660    5.325080
2 
Step 50 , box:    7.100     7.100     7.100
Ar    1.765568    1.776367    1.774870
Ar    1.784432    1.773633    5.325130
2 
Step 51 , box:    7.100     7.100     7.100
Ar    1.765378    1.776395    1.774829
Ar    1.784622    1.773605    5.325171
2 
Step 52 , box:    7.100     7.100     7.100
Ar    1.765189    1.776422    1.774797
Ar    1.784811    1.773578    5.325203
2 
Step 53 , box:    7.100     7.100     7.100
Ar    1.764999    1.776450    1.774772
Ar    1.785001    1.773550    5.325228
2 
Step 54 , box:    7.100     7.100     7.100
Ar    1.764810    1.776477    1.774757
Ar    1.785190    1.773523    5.325243
2 
Step 55 , box:    7.100     7.100     7.100
Ar    1.764620    1.776505    1.774749
Ar    1.785380    1.773495    5.325251
2 
Step 56 , box:    7.100     7.100     7.100
Ar    1.764431    1.776532    1.774750
Ar    1.785569    1.773468    5.325250
2 
Step 57 , box:    7.100     7.100     7.100
Ar    1.764241    1.776559    1.774759
Ar    1.785759    1.773441    5.325241
2 
Step 58 , box:    7.100     7.100     7.100
Ar    1.764051    1.776587    1.774777
Ar    1.785949    1.773413    5.325223
2 
Step 59 , box:    7.100     7.100     7.100
Ar    1.763861    1.776614    1.774803
Ar    1.786139    1.773386    5.325197
2 
Step 60 , box:    7.100     7.100     7.100
Ar    1.763671    1.776642    1.774838
Ar    1.786329    1.773358    5.325162
2 
Step 61 , box:    7.100     7.100     7.100
Ar    1.763482    1.776670    1.774880
Ar    1.786518    1.773330    5.325120
2 
Step 62 , box:    7.100     7.100     7.100
Ar    1.763292    1.776697    1.774932
Ar    1.786708    1.773303    5.325068
2 
Step 63 , box:    7.100     7.100     7.100
Ar    1.763102    1.776725    1.774991
Ar    1.786898    1.773275    5.325009
2 
Step 64 , box:    7.100     7.100     7.100
Ar    1.762911    1.776752    1.775059
Ar    1.787089    1.773248    5.324941
2 
Step 65 , box:    7.100     7.100     7.100
Ar    1.762721    1.776780    1.775118
Ar    1.787279    1.773220    5.324882
2 
Step 66 , box:    7.100     7.100     7.100
Ar    1.762531    1.776807    1.775170
Ar    1.787469    1.773193    5.324830
2 
Step 67 , box:    7.100     7.100     7.100
Ar    1.762341    1.776835    1.775212
Ar    1.787659    1.773165    5.324788
2 
Step 68 , box:    7.100     7.100     7.100
Ar    1.762151    1.776862    1.775247
Ar    1.787849    1.773138    5.324753
2 
Step 69 , box:    7.100     7.100     7.100
Ar    1.761960    1.776890    1.775273
Ar    1.788040    1.773110    5.324727
2 
Step 70 , box:    7.100     7.100     7.100
Ar    1.761770    1.776918    1.775290
Ar    1.788230    1.773082    5.324710
2 
Step 71 , box:    7.100     7.100     7.100
Ar    1.761579    1.776945    1.775300
Ar    1.788421    1.773055    5.324700
2 
Step 72 , box:    7.100     7.100     7.100
Ar    1.761389    1.776973    1.775301
Ar    1.788611    1.773027    5.324699
2 
Step 73 , box:    7.100     7.100     7.100
Ar    1.761198    1.777001    1.775293
Ar    1.788802    1.772999    5.324707
2 
Step 74 , box:    7.100     7.100     7.100
Ar    1.761007    1.777028    1.775277
Ar    1.788993    1.772972    5.324723
2 
Step 75 , box:    7.100     7.100     7.100
Ar    1.760817    1.777056    1.775253
Ar    1.789183    1.772944    5.324747
2 
Step 76 , box:    7.100     7.100     7.100
Ar    1.760626    1.777083    1.775220
Ar    1.789374    1.772917    5.324780
2 
Step 77 , box:    7.100     7.100     7.100
Ar    1.760435    1.777111    1.775179
Ar    1.789565    1.772889    5.324821
2 
Step 78 , box:    7.100     7.100     7.100
Ar    1.760244    1.777139    1.775130
Ar    1.789756    1.772861    5.324870
2 
Step 79 , box:    7.100     7.100     7.100
Ar    1.760053    1.777166    1.775072
Ar    1.789947    1.772834    5.324928
2 
Step 80 , box:    7.100     7.100     7.100
Ar    1.759862    1.777194    1.775006
Ar    1.790138    1.772806    5.324994
2 
Step 81 , box:    7.100     7.100     7.100
Ar    1.759671    1.777222    1.774931
Ar    1.790329    1.772778    5.325069
2 
Step 82 , box:    7.100     7.100     7.100
Ar    1.759480    1.777250    1.774865
Ar    1.790520    1.772750    5.325135
2 
Step 83 , box:    7.100     7.100     7.100
Ar    1.759288    1.777277    1.774808
Ar    1.790712    1.772723    5.325192
2 
Step 84 , box:    7.100     7.100     7.100
Ar    1.759097    1.777305    1.774758
Ar    1.790903    1.772695    5.325242
2 
Step 85 , box:    7.100     7.100     7.100
Ar    1.758905    1.777333    1.774717
Ar    1.791095    1.772667    5.325283
2 
Step 86 , box:    7.100     7.100     7.100
Ar    1.758714    1.777361    1.774685
Ar    1.791286    1.772639    5.325315
2 
Step 87 , box:    7.100     7.100     7.100
Ar    1.758522    1.777388    1.774660
Ar    1.791478    1.772612    5.325340
2 
Step 88 , box:    7.100     7.100     7.100
Ar    1.758331    1.777416    1.774645
Ar    1.791669    1.772584    5.325355
2 
Step 89 , box:    7.100     7.100     7.100
Ar    1.758139    1.777444    1.774637
Ar    1.791861    1.772556    5.325363
2 
Step 90 , box:    7.100     7.100     7.100
Ar    1.757947    1.777472    1.774638
Ar    1.792053    1.772528    5.325362
2 
Step 91 , box:    7.100     7.100     7.100
Ar    1.757755    1.777500    1.774647
Ar    1.792245    1.772500    5.325353
2 
Step 92 , box:    7.100     7.100     7.100
Ar    1.757563    1.777527    1.774665
Ar    1.792437    1.772473    5.325335
2 
Step 93 , box:    7.100     7.100     7.100
Ar    1.757371    1.777555    1.774691
Ar    1.792629    1.772445    5.325309
2 
Step 94 , box:    7.100     7.100     7.100
Ar    1.757179    1.777583    1.774726
Ar    1.792821    1.772417    5.325274
2 
Step 95 , box:    7.100     7.100     7.100
Ar    1.756987    1.777611    1.774768
Ar    1.793013    1.772389    5.325232
2 
Step 96 , box:    7.100     7.100     7.100
Ar    1.756794    1.777639    1.774820
Ar    1.793206    1.772361    5.325180
2 
Step 97 , box:    7.100     7.100     7.100
Ar    1.756602    1.777667    1.774879
Ar    1.793398    1.772333    5.325121
2 
Step 98 , box:    7.100     7.100     7.100
Ar    1.756409    1.777695    1.774947
Ar    1.793591    1.772305    5.325053
2 
Step 99 , box:    7.100     7.100     7.100
Ar    1.756217    1.777723    1.775024
Ar    1.793783    1.772277    5.324976
2 
Step 100 , box:    7.100     7.100     7.100
Ar    1.756024    1.777750    1.775091
Ar    1.793976    1.772250    5.324909
