512 
Step 0 , box:   28.400    28.400    28.400
Ar    1.775000    1.775000    1.775000
Ar    1.775000    1.775000    5.325000
Ar    1.775000    1.775000    8.875000
Ar    1.775000    1.775000   12.425000
Ar    1.775000    1.775000   15.975000
Ar    1.775000    1.775000   19.525000
Ar    1.775000    1.775000   23.075000
Ar    1.775000    1.775000   26.625000
Ar    1.775000    5.325000    1.775000
Ar    1.775000    5.325000    5.325000
Ar    1.775000    5.325000    8.875000
Ar    1.775000    5.325000   12.425000
Ar    1.775000    5.325000   15.975000
Ar    1.775000    5.325000   19.525000
Ar    1.775000    5.325000   23.075000
Ar    1.775000    5.325000   26.625000
Ar    1.775000    8.875000    1.775000
Ar    1.775000    8.875000    5.325000
Ar    1.775000    8.875000    8.875000
Ar    1.775000    8.875000   12.425000
Ar    1.775000    8.875000   15.975000
Ar    1.775000    8.875000   19.525000
Ar    1.775000    8.875000   23.075000
Ar    1.775000    8.875000   26.625000
Ar    1.775000   12.425000    1.775000
Ar    1.775000   12.425000    5.325000
Ar    1.775000   12.425000    8.875000
Ar    1.775000   12.425000   12.425000
Ar    1.775000   12.425000   15.975000
Ar    1.775000   12.425000   19.525000
Ar    1.775000   12.425000   23.075000
Ar    1.775000   12.425000   26.625000
Ar    1.775000   15.975000    1.775000
Ar    1.775000   15.975000    5.325000
Ar    1.775000   15.975000    8.875000
Ar    1.775000   15.975000   12.425000
Ar    1.775000   15.975000   15.975000
Ar    1.775000   15.975000   19.525000
Ar    1.775000   15.975000   23.075000
Ar    1.775000   15.975000   26.625000
Ar    1.775000   19.525000    1.775000
Ar    1.775000   19.525000    5.325000
Ar    1.775000   19.525000    8.875000
Ar    1.775000   19.525000   12.425000
Ar    1.775000   19.525000   15.975000
Ar    1.775000   19.525000   19.525000
Ar    1.775000   19.525000   23.075000
Ar    1.775000   19.525000   26.625000
Ar    1.775000   23.075000    1.775000
Ar    1.775000   23.075000    5.325000
Ar    1.775000   23.075000    8.875000
Ar    1.775000   23.075000   12.425000
Ar    1.775000   23.075000   15.975000
Ar    1.775000   23.075000   19.525000
Ar    1.775000   23.075000   23.075000
Ar    1.775000   23.075000   26.625000
Ar    1.775000   26.625000    1.775000
Ar    1.775000   26.625000    5.325000
Ar    1.775000   26.625000    8.875000
Ar    1.775000   26.625000   12.425000
Ar    1.775000   26.625000   15.975000
Ar    1.775000   26.625000   19.525000
Ar    1.775000   26.625000   23.075000
Ar    1.775000   26.625000   26.625000
Ar    5.325000    1.775000    1.775000
Ar    5.325000    1.775000    5.325000
Ar    5.325000    1.775000    8.875000
Ar    5.325000    1.775000   12.425000
Ar    5.325000    1.775000   15.975000
Ar    5.325000    1.775000   19.525000
Ar    5.325000    1.775000   23.075000
Ar    5.325000    1.775000   26.625000
Ar    5.325000    5.325000    1.775000
Ar    5.325000    5.325000    5.325000
Ar    5.325000    5.325000    8.875000
Ar    5.325000    5.325000   12.425000
Ar    5.325000    5.325000   15.975000
Ar    5.325000    5.325000   19.525000
Ar    5.325000    5.325000   23.075000
Ar    5.325000    5.325000   26.625000
Ar    5.325000    8.875000    1.775000
Ar    5.325000    8.875000    5.325000
Ar    5.325000    8.875000    8.875000
Ar    5.325000    8.875000   12.425000
Ar    5.325000    8.875000   15.975000
Ar    5.325000    8.875000   19.525000
Ar    5.325000    8.875000   23.075000
Ar    5.325000    8.875000   26.625000
Ar    5.325000   12.425000    1.775000
Ar    5.325000   12.425000    5.325000
Ar    5.325000   12.425000    8.875000
Ar    5.325000   12.425000   12.425000
Ar    5.325000   12.425000   15.975000
Ar    5.325000   12.425000   19.525000
Ar    5.325000   12.425000   23.075000
Ar    5.325000   12.425000   26.625000
Ar    5.325000   15.975000    1.775000
Ar    5.325000   15.975000    5.325000
Ar    5.325000   15.975000    8.875000
Ar    5.325000   15.975000   12.425000
Ar    5.325000   15.975000   15.975000
Ar    5.325000   15.975000   19.525000
Ar    5.325000   15.975000   23.075000
Ar    5.325000   15.975000   26.625000
Ar    5.325000   19.525000    1.775000
Ar    5.325000   19.525000    5.325000
Ar    5.325000   19.525000    8.875000
Ar    5.325000   19.525000   12.425000
Ar    5.325000   19.525000   15.975000
Ar    5.325000   19.525000   19.525000
Ar    5.325000   19.525000   23.075000
Ar    5.325000   19.525000   26.625000
Ar    5.325000   23.075000    1.775000
Ar    5.325000   23.075000    5.325000
Ar    5.325000   23.075000    8.875000
Ar    5.325000   23.075000   12.425000
Ar    5.325000   23.075000   15.975000
Ar    5.325000   23.075000   19.525000
Ar    5.325000   23.075000   23.075000
Ar    5.325000   23.075000   26.625000
Ar    5.325000   26.625000    1.775000
Ar    5.325000   26.625000    5.325000
Ar    5.325000   26.625000    8.875000
Ar    5.325000   26.625000   12.425000
Ar    5.325000   26.625000   15.975000
Ar    5.325000   26.625000   19.525000
Ar    5.325000   26.625000   23.075000
Ar    5.325000   26.625000   26.625000
Ar    8.875000    1.775000    1.775000
Ar    8.875000    1.775000    5.325000
Ar    8.875000    1.775000    8.875000
Ar    8.875000    1.775000   12.425000
Ar    8.875000    1.775000   15.975000
Ar    8.875000    1.775000   19.525000
Ar    8.875000    1.775000   23.075000
Ar    8.875000    1.775000   26.625000
Ar    8.875000    5.325000    1.775000
Ar    8.875000    5.325000    5.325000
Ar    8.875000    5.325000    8.875000
Ar    8.875000    5.325000   12.425000
Ar    8.875000    5.325000   15.975000
Ar    8.875000    5.325000   19.525000
Ar    8.875000    5.325000   23.075000
Ar    8.875000    5.325000   26.625000
Ar    8.875000    8.875000    1.775000
Ar    8.875000    8.875000    5.325000
Ar    8.875000    8.875000    8.875000
Ar    8.875000    8.875000   12.425000
Ar    8.875000    8.875000   15.975000
Ar    8.875000    8.875000   19.525000
Ar    8.875000    8.875000   23.075000
Ar    8.875000    8.875000   26.625000
Ar    8.875000   12.425000    1.775000
Ar    8.875000   12.425000    5.325000
Ar    8.875000   12.425000    8.875000
Ar    8.875000   12.425000   12.425000
Ar    8.875000   12.425000   15.975000
Ar    8.875000   12.425000   19.525000
Ar    8.875000   12.425000   23.075000
Ar    8.875000   12.425000   26.625000
Ar    8.875000   15.975000    1.775000
Ar    8.875000   15.975000    5.325000
Ar    8.875000   15.975000    8.875000
Ar    8.875000   15.975000   12.425000
Ar    8.875000   15.975000   15.975000
Ar    8.875000   15.975000   19.525000
Ar    8.875000   15.975000   23.075000
Ar    8.875000   15.975000   26.625000
Ar    8.875000   19.525000    1.775000
Ar    8.875000   19.525000    5.325000
Ar    8.875000   19.525000    8.875000
Ar    8.875000   19.525000   12.425000
Ar    8.875000   19.525000   15.975000
Ar    8.875000   19.525000   19.525000
Ar    8.875000   19.525000   23.075000
Ar    8.875000   19.525000   26.625000
Ar    8.875000   23.075000    1.775000
Ar    8.875000   23.075000    5.325000
Ar    8.875000   23.075000    8.875000
Ar    8.875000   23.075000   12.425000
Ar    8.875000   23.075000   15.975000
Ar    8.875000   23.075000   19.525000
Ar    8.875000   23.075000   23.075000
Ar    8.875000   23.075000   26.625000
Ar    8.875000   26.625000    1.775000
Ar    8.875000   26.625000    5.325000
Ar    8.875000   26.625000    8.875000
Ar    8.875000   26.625000   12.425000
Ar    8.875000   26.625000   15.975000
Ar    8.875000   26.625000   19.525000
Ar    8.875000   26.625000   23.075000
Ar    8.875000   26.625000   26.625000
Ar   12.425000    1.775000    1.775000
Ar   12.425000    1.775000    5.325000
Ar   12.425000    1.775000    8.875000
Ar   12.425000    1.775000   12.425000
Ar   12.425000    1.775000   15.975000
Ar   12.425000    1.775000   19.525000
Ar   12.425000    1.775000   23.075000
Ar   12.425000    1.775000   26.625000
Ar   12.425000    5.325000    1.775000
Ar   12.425000    5.325000    5.325000
Ar   12.425000    5.325000    8.875000
Ar   12.425000    5.325000   12.425000
Ar   12.425000    5.325000   15.975000
Ar   12.425000    5.325000   19.525000
Ar   12.425000    5.325000   23.075000
Ar   12.425000    5.325000   26.625000
Ar   12.425000    8.875000    1.775000
Ar   12.425000    8.875000    5.325000
Ar   12.425000    8.875000    8.875000
Ar   12.425000    8.875000   12.425000
Ar   12.425000    8.875000   15.975000
Ar   12.425000    8.875000   19.525000
Ar   12.425000    8.875000   23.075000
Ar   12.425000    8.875000   26.625000
Ar   12.425000   12.425000    1.775000
Ar   12.425000   12.425000    5.325000
Ar   12.425000   12.425000    8.875000
Ar   12.425000   12.425000   12.425000
Ar   12.425000   12.425000   15.975000
Ar   12.425000   12.425000   19.525000
Ar   12.425000   12.425000   23.075000
Ar   12.425000   12.425000   26.625000
Ar   12.425000   15.975000    1.775000
Ar   12.425000   15.975000    5.325000
Ar   12.425000   15.975000    8.875000
Ar   12.425000   15.975000   12.425000
Ar   12.425000   15.975000   15.975000
Ar   12.425000   15.975000   19.525000
Ar   12.425000   15.975000   23.075000
Ar   12.425000   15.975000   26.625000
Ar   12.425000   19.525000    1.775000
Ar   12.425000   19.525000    5.325000
Ar   12.425000   19.525000    8.875000
Ar   12.425000   19.525000   12.425000
Ar   12.425000   19.525000   15.975000
Ar   12.425000   19.525000   19.525000
Ar   12.425000   19.525000   23.075000
Ar   12.425000   19.525000   26.625000
Ar   12.425000   23.075000    1.775000
Ar   12.425000   23.075000    5.325000
Ar   12.425000   23.075000    8.875000
Ar   12.425000   23.075000   12.425000
Ar   12.425000   23.075000   15.975000
Ar   12.425000   23.075000   19.525000
Ar   12.425000   23.075000   23.075000
Ar   12.425000   23.075000   26.625000
Ar   12.425000   26.625000    1.775000
Ar   12.425000   26.625000    5.325000
Ar   12.425000   26.625000    8.875000
Ar   12.425000   26.625000   12.425000
Ar   12.425000   26.625000   15.975000
Ar   12.425000   26.625000   19.525000
Ar   12.425000   26.625000   23.075000
Ar   12.425000   26.625000   26.625000
Ar   15.975000    1.775000    1.775000
Ar   15.975000    1.775000    5.325000
Ar   15.975000    1.775000    8.875000
Ar   15.975000    1.775000   12.425000
Ar   15.975000    1.775000   15.975000
Ar   15.975000    1.775000   19.525000
Ar   15.975000    1.775000   23.075000
Ar   15.975000    1.775000   26.625000
Ar   15.975000    5.325000    1.775000
Ar   15.975000    5.325000    5.325000
Ar   15.975000    5.325000    8.875000
Ar   15.975000    5.325000   12.425000
Ar   15.975000    5.325000   15.975000
Ar   15.975000    5.325000   19.525000
Ar   15.975000    5.325000   23.075000
Ar   15.975000    5.325000   26.625000
Ar   15.975000    8.875000    1.775000
Ar   15.975000    8.875000    5.325000
Ar   15.975000    8.875000    8.875000
Ar   15.975000    8.875000   12.425000
Ar   15.975000    8.875000   15.975000
Ar   15.975000    8.875000   19.525000
Ar   15.975000    8.875000   23.075000
Ar   15.975000    8.875000   26.625000
Ar   15.975000   12.425000    1.775000
Ar   15.975000   12.425000    5.325000
Ar   15.975000   12.425000    8.875000
Ar   15.975000   12.425000   12.425000
Ar   15.975000   12.425000   15.975000
Ar   15.975000   12.425000   19.525000
Ar   15.975000   12.425000   23.075000
Ar   15.975000   12.425000   26.625000
Ar   15.975000   15.975000    1.775000
Ar   15.975000   15.975000    5.325000
Ar   15.975000   15.975000    8.875000
Ar   15.975000   15.975000   12.425000
Ar   15.975000   15.975000   15.975000
Ar   15.975000   15.975000   19.525000
Ar   15.975000   15.975000   23.075000
Ar   15.975000   15.975000   26.625000
Ar   15.975000   19.525000    1.775000
Ar   15.975000   19.525000    5.325000
Ar   15.975000   19.525000    8.875000
Ar   15.975000   19.525000   12.425000
Ar   15.975000   19.525000   15.975000
Ar   15.975000   19.525000   19.525000
Ar   15.975000   19.525000   23.075000
Ar   15.975000   19.525000   26.625000
Ar   15.975000   23.075000    1.775000
Ar   15.975000   23.075000    5.325000
Ar   15.975000   23.075000    8.875000
Ar   15.975000   23.075000   12.425000
Ar   15.975000   23.075000   15.975000
Ar   15.975000   23.075000   19.525000
Ar   15.975000   23.075000   23.075000
Ar   15.975000   23.075000   26.625000
Ar   15.975000   26.625000    1.775000
Ar   15.975000   26.625000    5.325000
Ar   15.975000   26.625000    8.875000
Ar   15.975000   26.625000   12.425000
Ar   15.975000   26.625000   15.975000
Ar   15.975000   26.625000   19.525000
Ar   15.975000   26.625000   23.075000
Ar   15.975000   26.625000   26.625000
Ar   19.525000    1.775000    1.775000
Ar   19.525000    1.775000    5.325000
Ar   19.525000    1.775000    8.875000
Ar   19.525000    1.775000   12.425000
Ar   19.525000    1.775000   15.975000
Ar   19.525000    1.775000   19.525000
Ar   19.525000    1.775000   23.075000
Ar   19.525000    1.775000   26.625000
Ar   19.525000    5.325000    1.775000
Ar   19.525000    5.325000    5.325000
Ar   19.525000    5.325000    8.875000
Ar   19.525000    5.325000   12.425000
Ar   19.525000    5.325000   15.975000
Ar   19.525000    5.325000   19.525000
Ar   19.525000    5.325000   23.075000
Ar   19.525000    5.325000   26.625000
Ar   19.525000    8.875000    1.775000
Ar   19.525000    8.875000    5.325000
Ar   19.525000    8.875000    8.875000
Ar   19.525000    8.875000   12.425000
Ar   19.525000    8.875000   15.975000
Ar   19.525000    8.875000   19.525000
Ar   19.525000    8.875000   23.075000
Ar   19.525000    8.875000   26.625000
Ar   19.525000   12.425000    1.775000
Ar   19.525000   12.425000    5.325000
Ar   19.525000   12.425000    8.875000
Ar   19.525000   12.425000   12.425000
Ar   19.525000   12.425000   15.975000
Ar   19.525000   12.425000   19.525000
Ar   19.525000   12.425000   23.075000
Ar   19.525000   12.425000   26.625000
Ar   19.525000   15.975000    1.775000
Ar   19.525000   15.975000    5.325000
Ar   19.525000   15.975000    8.875000
Ar   19.525000   15.975000   12.425000
Ar   19.525000   15.975000   15.975000
Ar   19.525000   15.975000   19.525000
Ar   19.525000   15.975000   23.075000
Ar   19.525000   15.975000   26.625000
Ar   19.525000   19.525000    1.775000
Ar   19.525000   19.525000    5.325000
Ar   19.525000   19.525000    8.875000
Ar   19.525000   19.525000   12.425000
Ar   19.525000   19.525000   15.975000
Ar   19.525000   19.525000   19.525000
Ar   19.525000   19.525000   23.075000
Ar   19.525000   19.525000   26.625000
Ar   19.525000   23.075000    1.775000
Ar   19.525000   23.075000    5.325000
Ar   19.525000   23.075000    8.875000
Ar   19.525000   23.075000   12.425000
Ar   19.525000   23.075000   15.975000
Ar   19.525000   23.075000   19.525000
Ar   19.525000   23.075000   23.075000
Ar   19.525000   23.075000   26.625000
Ar   19.525000   26.625000    1.775000
Ar   19.525000   26.625000    5.325000
Ar   19.525000   26.625000    8.875000
Ar   19.525000   26.625000   12.425000
Ar   19.525000   26.625000   15.975000
Ar   19.525000   26.625000   19.525000
Ar   19.525000   26.625000   23.075000
Ar   19.525000   26.625000   26.625000
Ar   23.075000    1.775000    1.775000
Ar   23.075000    1.775000    5.325000
Ar   23.075000    1.775000    8.875000
Ar   23.075000    1.775000   12.425000
Ar   23.075000    1.775000   15.975000
Ar   23.075000    1.775000   19.525000
Ar   23.075000    1.775000   23.075000
Ar   23.075000    1.775000   26.625000
Ar   23.075000    5.325000    1.775000
Ar   23.075000    5.325000    5.325000
Ar   23.075000    5.325000    8.875000
Ar   23.075000    5.325000   12.425000
Ar   23.075000    5.325000   15.975000
Ar   23.075000    5.325000   19.525000
Ar   23.075000    5.325000   23.075000
Ar   23.075000    5.325000   26.625000
Ar   23.075000    8.875000    1.775000
Ar   23.075000    8.875000    5.325000
Ar   23.075000    8.875000    8.875000
Ar   23.075000    8.875000   12.425000
Ar   23.075000    8.875000   15.975000
Ar   23.075000    8.875000   19.525000
Ar   23.075000    8.875000   23.075000
Ar   23.075000    8.875000   26.625000
Ar   23.075000   12.425000    1.775000
Ar   23.075000   12.425000    5.325000
Ar   23.075000   12.425000    8.875000
Ar   23.075000   12.425000   12.425000
Ar   23.075000   12.425000   15.975000
Ar   23.075000   12.425000   19.525000
Ar   23.075000   12.425000   23.075000
Ar   23.075000   12.425000   26.625000
Ar   23.075000   15.975000    1.775000
Ar   23.075000   15.975000    5.325000
Ar   23.075000   15.975000    8.875000
Ar   23.075000   15.975000   12.425000
Ar   23.075000   15.975000   15.975000
Ar   23.075000   15.975000   19.525000
Ar   23.075000   15.975000   23.075000
Ar   23.075000   15.975000   26.625000
Ar   23.075000   19.525000    1.775000
Ar   23.075000   19.525000    5.325000
Ar   23.075000   19.525000    8.875000
Ar   23.075000   19.525000   12.425000
Ar   23.075000   19.525000   15.975000
Ar   23.075000   19.525000   19.525000
Ar   23.075000   19.525000   23.075000
Ar   23.075000   19.525000   26.625000
Ar   23.075000   23.075000    1.775000
Ar   23.075000   23.075000    5.325000
Ar   23.075000   23.075000    8.875000
Ar   23.075000   23.075000   12.425000
Ar   23.075000   23.075000   15.975000
Ar   23.075000   23.075000   19.525000
Ar   23.075000   23.075000   23.075000
Ar   23.075000   23.075000   26.625000
Ar   23.075000   26.625000    1.775000
Ar   23.075000   26.625000    5.325000
Ar   23.075000   26.625000    8.875000
Ar   23.075000   26.625000   12.425000
Ar   23.075000   26.625000   15.975000
Ar   23.075000   26.625000   19.525000
Ar   23.075000   26.625000   23.075000
Ar   23.075000   26.625000   26.625000
Ar   26.625000    1.775000    1.775000
Ar   26.625000    1.775000    5.325000
Ar   26.625000    1.775000    8.875000
Ar   26.625000    1.775000   12.425000
Ar   26.625000    1.775000   15.975000
Ar   26.625000    1.775000   19.525000
Ar   26.625000    1.775000   23.075000
Ar   26.625000    1.775000   26.625000
Ar   26.625000    5.325000    1.775000
Ar   26.625000    5.325000    5.325000
Ar   26.625000    5.325000    8.875000
Ar   26.625000    5.325000   12.425000
Ar   26.625000    5.325000   15.975000
Ar   26.625000    5.325000   19.525000
Ar   26.625000    5.325000   23.075000
Ar   26.625000    5.325000   26.625000
Ar   26.625000    8.875000    1.775000
Ar   26.625000    8.875000    5.325000
Ar   26.625000    8.875000    8.875000
Ar   26.625000    8.875000   12.425000
Ar   26.625000    8.875000   15.975000
Ar   26.625000    8.875000   19.525000
Ar   26.625000    8.875000   23.075000
Ar   26.625000    8.875000   26.625000
Ar   26.625000   12.425000    1.775000
Ar   26.625000   12.425000    5.325000
Ar   26.625000   12.425000    8.875000
Ar   26.625000   12.425000   12.425000
Ar   26.625000   12.425000   15.975000
Ar   26.625000   12.425000   19.525000
Ar   26.625000   12.425000   23.075000
Ar   26.625000   12.425000   26.625000
Ar   26.625000   15.975000    1.775000
Ar   26.625000   15.975000    5.325000
Ar   26.625000   15.975000    8.875000
Ar   26.625000   15.975000   12.425000
Ar   26.625000   15.975000   15.975000
Ar   26.625000   15.975000   19.525000
Ar   26.625000   15.975000   23.075000
Ar   26.625000   15.975000   26.625000
Ar   26.625000   19.525000    1.775000
Ar   26.625000   19.525000    5.325000
Ar   26.625000   19.525000    8.875000
Ar   26.625000   19.525000   12.425000
Ar   26.625000   19.525000   15.975000
Ar   26.625000   19.525000   19.525000
Ar   26.625000   19.525000   23.075000
Ar   26.625000   19.525000   26.625000
Ar   26.625000   23.075000    1.775000
Ar   26.625000   23.075000    5.325000
Ar   26.625000   23.075000    8.875000
Ar   26.625000   23.075000   12.425000
Ar   26.625000   23.075000   15.975000
Ar   26.625000   23.075000   19.525000
Ar   26.625000   23.075000   23.075000
Ar   26.625000   23.075000   26.625000
Ar   26.625000   26.625000    1.775000
Ar   26.625000   26.625000    5.325000
Ar   26.625000   26.625000    8.875000
Ar   26.625000   26.625000   12.425000
Ar   26.625000   26.625000   15.975000
Ar   26.625000   26.625000   19.525000
Ar   26.625000   26.625000   23.075000
Ar   26.625000   26.625000   26.625000
512 
Step 1 , box:   28.400    28.400    28.400
Ar    1.760250    1.785688    1.784055
Ar    1.780763    1.780656    5.321265
Ar    1.786963    1.769023    8.871377
Ar    1.779925    1.774319   12.414854
Ar    1.761780    1.775887   15.962889
Ar    1.763608    1.785286   19.523416
Ar    1.774180    1.778860   23.086920
Ar    1.784220    1.769357   26.635349
Ar    1.787987    5.327550    1.771207
Ar    1.777936    5.328581    5.325519
Ar    1.761726    5.311518    8.877878
Ar    1.789345    5.313441   12.410849
Ar    1.777276    5.338718   15.968947
Ar    1.761677    5.330576   19.530832
Ar    1.777700    5.321389   23.063873
Ar    1.782347    5.321230   26.616053
Ar    1.776480    8.874315    1.785800
Ar    1.768950    8.888051    5.338498
Ar    1.787253    8.873958    8.888329
Ar    1.779928    8.885078   12.423167
Ar    1.789605    8.870505   15.977145
Ar    1.769127    8.874123   19.520614
Ar    1.769250    8.864313   23.063585
Ar    1.788378    8.878874   26.627856
Ar    1.771265   12.431211    1.763430
Ar    1.783626   12.435225    5.323744
Ar    1.788007   12.426924    8.873492
Ar    1.781039   12.439841   12.413304
Ar    1.763169   12.439382   15.964155
Ar    1.763293   12.436796   19.537980
Ar    1.762422   12.436714   23.070022
Ar    1.760468   12.431480   26.636490
Ar    1.786718   15.961221    1.786804
Ar    1.775501   15.976377    5.322859
Ar    1.768704   15.980984    8.861353
Ar    1.761489   15.979506   12.417179
Ar    1.760536   15.966240   15.976665
Ar    1.773032   15.984358   19.520247
Ar    1.763103   15.964222   23.065645
Ar    1.766510   15.962261   26.629293
Ar    1.766124   19.536784    1.776777
Ar    1.769253   19.512245    5.314440
Ar    1.768088   19.520155    8.865443
Ar    1.760655   19.529102   12.416937
Ar    1.772612   19.533100   15.987344
Ar    1.768613   19.523394   19.536287
Ar    1.789570   19.534282   23.075685
Ar    1.777383   19.513205   26.609779
Ar    1.785559   23.067566    1.783891
Ar    1.783194   23.079422    5.319643
Ar    1.781270   23.079275    8.884368
Ar    1.782841   23.070006   12.437731
Ar    1.788679   23.062465   15.974433
Ar    1.783642   23.085131   19.511129
Ar    1.777626   23.072291   23.070653
Ar    1.772701   23.078105   26.635033
Ar    1.762457   26.626339    1.783612
Ar    1.771838   26.622486    5.329437
Ar    1.773143   26.611328    8.884609
Ar    1.776285   26.610333   12.411353
Ar    1.762009   26.624405   15.986490
Ar    1.762801   26.614690   19.530230
Ar    1.773502   26.633455   23.067977
Ar    1.781292   26.611913   26.628540
Ar    5.324446    1.775437    1.785407
Ar    5.321141    1.784121    5.327398
Ar    5.311209    1.785903    8.866285
Ar    5.331729    1.776979   12.421299
Ar    5.336919    1.780289   15.976973
Ar    5.317054    1.776334   19.517306
Ar    5.340205    1.779993   23.064782
Ar    5.337890    1.768585   26.617456
Ar    5.320295    5.325920    1.765292
Ar    5.328470    5.323659    5.316442
Ar    5.327255    5.319509    8.884878
Ar    5.322520    5.315598   12.436993
Ar    5.331693    5.317173   15.979325
Ar    5.316615    5.334055   19.519001
Ar    5.313678    5.339556   23.081838
Ar    5.319163    5.330068   26.617884
Ar    5.328344    8.863100    1.770671
Ar    5.323918    8.860301    5.339089
Ar    5.335211    8.860793    8.864631
Ar    5.324920    8.863230   12.414747
Ar    5.315114    8.873852   15.969502
Ar    5.338715    8.889613   19.528557
Ar    5.334054    8.862357   23.089356
Ar    5.328990    8.885961   26.623220
Ar    5.322120   12.439543    1.772309
Ar    5.321022   12.419475    5.324396
Ar    5.338967   12.412437    8.880241
Ar    5.336668   12.434466   12.430250
Ar    5.335048   12.414373   15.985121
Ar    5.320035   12.429661   19.513925
Ar    5.317851   12.434815   23.063550
Ar    5.338068   12.433567   26.617239
Ar    5.327943   15.972773    1.776540
Ar    5.334555   15.981469    5.327916
Ar    5.314716   15.966142    8.873826
Ar    5.339069   15.976225   12.416108
Ar    5.327912   15.969032   15.975951
Ar    5.331765   15.979884   19.511649
Ar    5.337354   15.967329   23.067826
Ar    5.316076   15.963633   26.622886
Ar    5.330894   19.513754    1.768974
Ar    5.336170   19.510922    5.326539
Ar    5.332011   19.527344    8.880988
Ar    5.317469   19.529976   12.431534
Ar    5.327549   19.536738   15.981661
Ar    5.314844   19.537404   19.522674
Ar    5.337859   19.539054   23.068174
Ar    5.323943   19.538202   26.618768
Ar    5.333810   23.083620    1.786212
Ar    5.339961   23.088887    5.334037
Ar    5.314227   23.081076    8.866517
Ar    5.326963   23.062010   12.430496
Ar    5.333464   23.060517   15.981986
Ar    5.340108   23.088263   19.523745
Ar    5.323683   23.072595   23.079229
Ar    5.339667   23.071358   26.634093
Ar    5.332001   26.634638    1.784543
Ar    5.325904   26.616453    5.323964
Ar    5.321910   26.620252    8.878747
Ar    5.325554   26.614972   12.413874
Ar    5.323177   26.615072   15.971213
Ar    5.328622   26.633243   19.525509
Ar    5.312535   26.612052   23.071759
Ar    5.324714   26.634700   26.624170
Ar    8.870796    1.783988    1.780340
Ar    8.863336    1.784538    5.331490
Ar    8.889786    1.763527    8.874302
Ar    8.866166    1.775607   12.439549
Ar    8.879254    1.784477   15.979548
Ar    8.883951    1.787182   19.524072
Ar    8.877047    1.761699   23.083983
Ar    8.889460    1.766193   26.618493
Ar    8.880413    5.328523    1.782773
Ar    8.878746    5.323706    5.329012
Ar    8.881502    5.323293    8.870266
Ar    8.868964    5.333608   12.413878
Ar    8.877132    5.319010   15.971875
Ar    8.868545    5.321457   19.522033
Ar    8.861500    5.326842   23.074032
Ar    8.866199    5.332069   26.627532
Ar    8.886105    8.875490    1.775138
Ar    8.869608    8.884480    5.326215
Ar    8.870922    8.876189    8.886675
Ar    8.880112    8.871675   12.420398
Ar    8.882000    8.864471   15.988702
Ar    8.877739    8.871838   19.511853
Ar    8.885376    8.883907   23.074496
Ar    8.869552    8.873627   26.621803
Ar    8.864219   12.438481    1.775930
Ar    8.866193   12.429848    5.330945
Ar    8.867013   12.432567    8.869601
Ar    8.872209   12.434595   12.433177
Ar    8.861164   12.428083   15.974309
Ar    8.871559   12.414327   19.517538
Ar    8.868578   12.428785   23.077582
Ar    8.887861   12.437878   26.611052
Ar    8.871236   15.988743    1.777802
Ar    8.865811   15.972228    5.322477
Ar    8.876167   15.968240    8.889036
Ar    8.871088   15.974609   12.428027
Ar    8.889915   15.984913   15.960647
Ar    8.886424   15.977207   19.536628
Ar    8.870165   15.970227   23.075950
Ar    8.866420   15.974485   26.614794
Ar    8.872788   19.520670    1.778841
Ar    8.866035   19.509966    5.313265
Ar    8.878653   19.521582    8.875072
Ar    8.871541   19.532389   12.421512
Ar    8.865612   19.522874   15.985394
Ar    8.864655   19.523919   19.513484
Ar    8.887144   19.520430   23.080393
Ar    8.880829   19.521955   26.615511
Ar    8.868633   23.074226    1.784059
Ar    8.871933   23.072048    5.328013
Ar    8.870918   23.065467    8.868566
Ar    8.872435   23.074198   12.417436
Ar    8.885619   23.086267   15.961497
Ar    8.879964   23.063316   19.535154
Ar    8.886029   23.060174   23.083357
Ar    8.869464   23.063366   26.617580
Ar    8.876186   26.632687    1.773534
Ar    8.873227   26.638862    5.310021
Ar    8.887815   26.623159    8.880868
Ar    8.880568   26.618254   12.432748
Ar    8.885394   26.636779   15.977215
Ar    8.880797   26.622073   19.516618
Ar    8.862271   26.624433   23.084742
Ar    8.870809   26.619161   26.636630
Ar   12.410562    1.769509    1.785690
Ar   12.428523    1.768755    5.328556
Ar   12.421045    1.769156    8.862668
Ar   12.420213    1.772363   12.433846
Ar   12.420662    1.775891   15.961528
Ar   12.430494    1.768153   19.519528
Ar   12.412700    1.780565   23.068697
Ar   12.418102    1.777683   26.621864
Ar   12.427297    5.334722    1.789073
Ar   12.439480    5.329882    5.314212
Ar   12.428495    5.330189    8.879643
Ar   12.434807    5.317107   12.425404
Ar   12.424771    5.324147   15.974377
Ar   12.425550    5.337524   19.538661
Ar   12.422878    5.331923   23.082705
Ar   12.431158    5.310279   26.623926
Ar   12.440008    8.889263    1.770261
Ar   12.434524    8.875655    5.318477
Ar   12.436103    8.871977    8.871373
Ar   12.418515    8.877996   12.432150
Ar   12.432726    8.888676   15.986576
Ar   12.411580    8.876248   19.535871
Ar   12.424197    8.863813   23.076450
Ar   12.413564    8.870362   26.617577
Ar   12.412963   12.429434    1.766726
Ar   12.421408   12.432761    5.338063
Ar   12.434029   12.417231    8.861205
Ar   12.417246   12.413469   12.438263
Ar   12.431086   12.424418   15.969547
Ar   12.410476   12.419133   19.518313
Ar   12.434738   12.420953   23.075635
Ar   12.428044   12.412592   26.636567
Ar   12.435469   15.982577    1.778434
Ar   12.439568   15.978552    5.312251
Ar   12.436873   15.978294    8.873987
Ar   12.437823   15.981253   12.420395
Ar   12.429064   15.963078   15.981841
Ar   12.431503   15.984021   19.514401
Ar   12.433151   15.975111   23.074343
Ar   12.426838   15.979199   26.622960
Ar   12.411031   19.512025    1.772209
Ar   12.431552   19.522744    5.317128
Ar   12.427576   19.510729    8.868760
Ar   12.422458   19.527264   12.437673
Ar   12.417042   19.539363   15.982439
Ar   12.430316   19.527906   19.528558
Ar   12.420168   19.517572   23.071198
Ar   12.419083   19.535814   26.624765
Ar   12.433094   23.087281    1.789328
Ar   12.439704   23.086093    5.331738
Ar   12.410945   23.060292    8.880140
Ar   12.418462   23.088777   12.418353
Ar   12.423614   23.088058   15.987880
Ar   12.418086   23.069760   19.524502
Ar   12.414720   23.087560   23.089399
Ar   12.438052   23.083922   26.615839
Ar   12.430648   26.625493    1.764452
Ar   12.410491   26.625427    5.313850
Ar   12.437525   26.636626    8.861013
Ar   12.419413   26.631391   12.410044
Ar   12.433888   26.616984   15.981187
Ar   12.433231   26.624768   19.520645