512 
Step 0 , box:   28.400    28.400    28.400
Ar    1.775000    1.775000    1.775000
Ar    1.775000    1.775000    5.325000
Ar    1.775000    1.775000    8.875000
Ar    1.775000    1.775000   12.425000
Ar    1.775000    1.775000   15.975000
Ar    1.775000    1.775000   19.525000
Ar    1.775000    1.775000   23.075000
Ar    1.775000    1.775000   26.625000
Ar    1.775000    5.325000    1.775000
Ar    1.775000    5.325000    5.325000
Ar    1.775000    5.325000    8.875000
Ar    1.775000    5.325000   12.425000
Ar    1.775000    5.325000   15.975000
Ar    1.775000    5.325000   19.525000
Ar    1.775000    5.325000   23.075000
Ar    1.775000    5.325000   26.625000
Ar    1.775000    8.875000    1.775000
Ar    1.775000    8.875000    5.325000
Ar    1.775000    8.875000    8.875000
Ar    1.775000    8.875000   12.425000
Ar    1.775000    8.875000   15.975000
Ar    1.775000    8.875000   19.525000
Ar    1.775000    8.875000   23.075000
Ar    1.775000    8.875000   26.625000
Ar    1.775000   12.425000    1.775000
Ar    1.775000   12.425000    5.325000
Ar    1.775000   12.425000    8.875000
Ar    1.775000   12.425000   12.425000
Ar    1.775000   12.425000   15.975000
Ar    1.775000   12.425000   19.525000
Ar    1.775000   12.425000   23.075000
Ar    1.775000   12.425000   26.625000
Ar    1.775000   15.975000    1.775000
Ar    1.775000   15.975000    5.325000
Ar    1.775000   15.975000    8.875000
Ar    1.775000   15.975000   12.425000
Ar    1.775000   15.975000   15.975000
Ar    1.775000   15.975000   19.525000
Ar    1.775000   15.975000   23.075000
Ar    1.775000   15.975000   26.625000
Ar    1.775000   19.525000    1.775000
Ar    1.775000   19.525000    5.325000
Ar    1.775000   19.525000    8.875000
Ar    1.775000   19.525000   12.425000
Ar    1.775000   19.525000   15.975000
Ar    1.775000   19.525000   19.525000
Ar    1.775000   19.525000   23.075000
Ar    1.775000   19.525000   26.625000
Ar    1.775000   23.075000    1.775000
Ar    1.775000   23.075000    5.325000
Ar    1.775000   23.075000    8.875000
Ar    1.775000   23.075000   12.425000
Ar    1.775000   23.075000   15.975000
Ar    1.775000   23.075000   19.525000
Ar    1.775000   23.075000   23.075000
Ar    1.775000   23.075000   26.625000
Ar    1.775000   26.625000    1.775000
Ar    1.775000   26.625000    5.325000
Ar    1.775000   26.625000    8.875000
Ar    1.775000   26.625000   12.425000
Ar    1.775000   26.625000   15.975000
Ar    1.775000   26.625000   19.525000
Ar    1.775000   26.625000   23.075000
Ar    1.775000   26.625000   26.625000
Ar    5.325000    1.775000    1.775000
Ar    5.325000    1.775000    5.325000
Ar    5.325000    1.775000    8.875000
Ar    5.325000    1.775000   12.425000
Ar    5.325000    1.775000   15.975000
Ar    5.325000    1.775000   19.525000
Ar    5.325000    1.775000   23.075000
Ar    5.325000    1.775000   26.625000
Ar    5.325000    5.325000    1.775000
Ar    5.325000    5.325000    5.325000
Ar    5.325000    5.325000    8.875000
Ar    5.325000    5.325000   12.425000
Ar    5.325000    5.325000   15.975000
Ar    5.325000    5.325000   19.525000
Ar    5.325000    5.325000   23.075000
Ar    5.325000    5.325000   26.625000
Ar    5.325000    8.875000    1.775000
Ar    5.325000    8.875000    5.325000
Ar    5.325000    8.875000    8.875000
Ar    5.325000    8.875000   12.425000
Ar    5.325000    8.875000   15.975000
Ar    5.325000    8.875000   19.525000
Ar    5.325000    8.875000   23.075000
Ar    5.325000    8.875000   26.625000
Ar    5.325000   12.425000    1.775000
Ar    5.325000   12.425000    5.325000
Ar    5.325000   12.425000    8.875000
Ar    5.325000   12.425000   12.425000
Ar    5.325000   12.425000   15.975000
Ar    5.325000   12.425000   19.525000
Ar    5.325000   12.425000   23.075000
Ar    5.325000   12.425000   26.625000
Ar    5.325000   15.975000    1.775000
Ar    5.325000   15.975000    5.325000
Ar    5.325000   15.975000    8.875000
Ar    5.325000   15.975000   12.425000
Ar    5.325000   15.975000   15.975000
Ar    5.325000   15.975000   19.525000
Ar    5.325000   15.975000   23.075000
Ar    5.325000   15.975000   26.625000
Ar    5.325000   19.525000    1.775000
Ar    5.325000   19.525000    5.325000
Ar    5.325000   19.525000    8.875000
Ar    5.325000   19.525000   12.425000
Ar    5.325000   19.525000   15.975000
Ar    5.325000   19.525000   19.525000
Ar    5.325000   19.525000   23.075000
Ar    5.325000   19.525000   26.625000
Ar    5.325000   23.075000    1.775000
Ar    5.325000   23.075000    5.325000
Ar    5.325000   23.075000    8.875000
Ar    5.325000   23.075000   12.425000
Ar    5.325000   23.075000   15.975000
Ar    5.325000   23.075000   19.525000
Ar    5.325000   23.075000   23.075000
Ar    5.325000   23.075000   26.625000
Ar    5.325000   26.625000    1.775000
Ar    5.325000   26.625000    5.325000
Ar    5.325000   26.625000    8.875000
Ar    5.325000   26.625000   12.425000
Ar    5.325000   26.625000   15.975000
Ar    5.325000   26.625000   19.525000
Ar    5.325000   26.625000   23.075000
Ar    5.325000   26.625000   26.625000
Ar    8.875000    1.775000    1.775000
Ar    8.875000    1.775000    5.325000
Ar    8.875000    1.775000    8.875000
Ar    8.875000    1.775000   12.425000
Ar    8.875000    1.775000   15.975000
Ar    8.875000    1.775000   19.525000
Ar    8.875000    1.775000   23.075000
Ar    8.875000    1.775000   26.625000
Ar    8.875000    5.325000    1.775000
Ar    8.875000    5.325000    5.325000
Ar    8.875000    5.325000    8.875000
Ar    8.875000    5.325000   12.425000
Ar    8.875000    5.325000   15.975000
Ar    8.875000    5.325000   19.525000
Ar    8.875000    5.325000   23.075000
Ar    8.875000    5.325000   26.625000
Ar    8.875000    8.875000    1.775000
Ar    8.875000    8.875000    5.325000
Ar    8.875000    8.875000    8.875000
Ar    8.875000    8.875000   12.425000
Ar    8.875000    8.875000   15.975000
Ar    8.875000    8.875000   19.525000
Ar    8.875000    8.875000   23.075000
Ar    8.875000    8.875000   26.625000
Ar    8.875000   12.425000    1.775000
Ar    8.875000   12.425000    5.325000
Ar    8.875000   12.425000    8.875000
Ar    8.875000   12.425000   12.425000
Ar    8.875000   12.425000   15.975000
Ar    8.875000   12.425000   19.525000
Ar    8.875000   12.425000   23.075000
Ar    8.875000   12.425000   26.625000
Ar    8.875000   15.975000    1.775000
Ar    8.875000   15.975000    5.325000
Ar    8.875000   15.975000    8.875000
Ar    8.875000   15.975000   12.425000
Ar    8.875000   15.975000   15.975000
Ar    8.875000   15.975000   19.525000
Ar    8.875000   15.975000   23.075000
Ar    8.875000   15.975000   26.625000
Ar    8.875000   19.525000    1.775000
Ar    8.875000   19.525000    5.325000
Ar    8.875000   19.525000    8.875000
Ar    8.875000   19.525000   12.425000
Ar    8.875000   19.525000   15.975000
Ar    8.875000   19.525000   19.525000
Ar    8.875000   19.525000   23.075000
Ar    8.875000   19.525000   26.625000
Ar    8.875000   23.075000    1.775000
Ar    8.875000   23.075000    5.325000
Ar    8.875000   23.075000    8.875000
Ar    8.875000   23.075000   12.425000
Ar    8.875000   23.075000   15.975000
Ar    8.875000   23.075000   19.525000
Ar    8.875000   23.075000   23.075000
Ar    8.875000   23.075000   26.625000
Ar    8.875000   26.625000    1.775000
Ar    8.875000   26.625000    5.325000
Ar    8.875000   26.625000    8.875000
Ar    8.875000   26.625000   12.425000
Ar    8.875000   26.625000   15.975000
Ar    8.875000   26.625000   19.525000
Ar    8.875000   26.625000   23.075000
Ar    8.875000   26.625000   26.625000
Ar   12.425000    1.775000    1.775000
Ar   12.425000    1.775000    5.325000
Ar   12.425000    1.775000    8.875000
Ar   12.425000    1.775000   12.425000
Ar   12.425000    1.775000   15.975000
Ar   12.425000    1.775000   19.525000
Ar   12.425000    1.775000   23.075000
Ar   12.425000    1.775000   26.625000
Ar   12.425000    5.325000    1.775000
Ar   12.425000    5.325000    5.325000
Ar   12.425000    5.325000    8.875000
Ar   12.425000    5.325000   12.425000
Ar   12.425000    5.325000   15.975000
Ar   12.425000    5.325000   19.525000
Ar   12.425000    5.325000   23.075000
Ar   12.425000    5.325000   26.625000
Ar   12.425000    8.875000    1.775000
Ar   12.425000    8.875000    5.325000
Ar   12.425000    8.875000    8.875000
Ar   12.425000    8.875000   12.425000
Ar   12.425000    8.875000   15.975000
Ar   12.425000    8.875000   19.525000
Ar   12.425000    8.875000   23.075000
Ar   12.425000    8.875000   26.625000
Ar   12.425000   12.425000    1.775000
Ar   12.425000   12.425000    5.325000
Ar   12.425000   12.425000    8.875000
Ar   12.425000   12.425000   12.425000
Ar   12.425000   12.425000   15.975000
Ar   12.425000   12.425000   19.525000
Ar   12.425000   12.425000   23.075000
Ar   12.425000   12.425000   26.625000
Ar   12.425000   15.975000    1.775000
Ar   12.425000   15.975000    5.325000
Ar   12.425000   15.975000    8.875000
Ar   12.425000   15.975000   12.425000
Ar   12.425000   15.975000   15.975000
Ar   12.425000   15.975000   19.525000
Ar   12.425000   15.975000   23.075000
Ar   12.425000   15.975000   26.625000
Ar   12.425000   19.525000    1.775000
Ar   12.425000   19.525000    5.325000
Ar   12.425000   19.525000    8.875000
Ar   12.425000   19.525000   12.425000
Ar   12.425000   19.525000   15.975000
Ar   12.425000   19.525000   19.525000
Ar   12.425000   19.525000   23.075000
Ar   12.425000   19.525000   26.625000
Ar   12.425000   23.075000    1.775000
Ar   12.425000   23.075000    5.325000
Ar   12.425000   23.075000    8.875000
Ar   12.425000   23.075000   12.425000
Ar   12.425000   23.075000   15.975000
Ar   12.425000   23.075000   19.525000
Ar   12.425000   23.075000   23.075000
Ar   12.425000   23.075000   26.625000
Ar   12.425000   26.625000    1.775000
Ar   12.425000   26.625000    5.325000
Ar   12.425000   26.625000    8.875000
Ar   12.425000   26.625000   12.425000
Ar   12.425000   26.625000   15.975000
Ar   12.425000   26.625000   19.525000
Ar   12.425000   26.625000   23.075000
Ar   12.425000   26.625000   26.625000
Ar   15.975000    1.775000    1.775000
Ar   15.975000    1.775000    5.325000
Ar   15.975000    1.775000    8.875000
Ar   15.975000    1.775000   12.425000
Ar   15.975000    1.775000   15.975000
Ar   15.975000    1.775000   19.525000
Ar   15.975000    1.775000   23.075000
Ar   15.975000    1.775000   26.625000
Ar   15.975000    5.325000    1.775000
Ar   15.975000    5.325000    5.325000
Ar   15.975000    5.325000    8.875000
Ar   15.975000    5.325000   12.425000
Ar   15.975000    5.325000   15.975000
Ar   15.975000    5.325000   19.525000
Ar   15.975000    5.325000   23.075000
Ar   15.975000    5.325000   26.625000
Ar   15.975000    8.875000    1.775000
Ar   15.975000    8.875000    5.325000
Ar   15.975000    8.875000    8.875000
Ar   15.975000    8.875000   12.425000
Ar   15.975000    8.875000   15.975000
Ar   15.975000    8.875000   19.525000
Ar   15.975000    8.875000   23.075000
Ar   15.975000    8.875000   26.625000
Ar   15.975000   12.425000    1.775000
Ar   15.975000   12.425000    5.325000
Ar   15.975000   12.425000    8.875000
Ar   15.975000   12.425000   12.425000
Ar   15.975000   12.425000   15.975000
Ar   15.975000   12.425000   19.525000
Ar   15.975000   12.425000   23.075000
Ar   15.975000   12.425000   26.625000
Ar   15.975000   15.975000    1.775000
Ar   15.975000   15.975000    5.325000
Ar   15.975000   15.975000    8.875000
Ar   15.975000   15.975000   12.425000
Ar   15.975000   15.975000   15.975000
Ar   15.975000   15.975000   19.525000
Ar   15.975000   15.975000   23.075000
Ar   15.975000   15.975000   26.625000
Ar   15.975000   19.525000    1.775000
Ar   15.975000   19.525000    5.325000
Ar   15.975000   19.525000    8.875000
Ar   15.975000   19.525000   12.425000
Ar   15.975000   19.525000   15.975000
Ar   15.975000   19.525000   19.525000
Ar   15.975000   19.525000   23.075000
Ar   15.975000   19.525000   26.625000
Ar   15.975000   23.075000    1.775000
Ar   15.975000   23.075000    5.325000
Ar   15.975000   23.075000    8.875000
Ar   15.975000   23.075000   12.425000
Ar   15.975000   23.075000   15.975000
Ar   15.975000   23.075000   19.525000
Ar   15.975000   23.075000   23.075000
Ar   15.975000   23.075000   26.625000
Ar   15.975000   26.625000    1.775000
Ar   15.975000   26.625000    5.325000
Ar   15.975000   26.625000    8.875000
Ar   15.975000   26.625000   12.425000
Ar   15.975000   26.625000   15.975000
Ar   15.975000   26.625000   19.525000
Ar   15.975000   26.625000   23.075000
Ar   15.975000   26.625000   26.625000
Ar   19.525000    1.775000    1.775000
Ar   19.525000    1.775000    5.325000
Ar   19.525000    1.775000    8.875000
Ar   19.525000    1.775000   12.425000
Ar   19.525000    1.775000   15.975000
Ar   19.525000    1.775000   19.525000
Ar   19.525000    1.775000   23.075000
Ar   19.525000    1.775000   26.625000
Ar   19.525000    5.325000    1.775000
Ar   19.525000    5.325000    5.325000
Ar   19.525000    5.325000    8.875000
Ar   19.525000    5.325000   12.425000
Ar   19.525000    5.325000   15.975000
Ar   19.525000    5.325000   19.525000
Ar   19.525000    5.325000   23.075000
Ar   19.525000    5.325000   26.625000
Ar   19.525000    8.875000    1.775000
Ar   19.525000    8.875000    5.325000
Ar   19.525000    8.875000    8.875000
Ar   19.525000    8.875000   12.425000
Ar   19.525000    8.875000   15.975000
Ar   19.525000    8.875000   19.525000
Ar   19.525000    8.875000   23.075000
Ar   19.525000    8.875000   26.625000
Ar   19.525000   12.425000    1.775000
Ar   19.525000   12.425000    5.325000
Ar   19.525000   12.425000    8.875000
Ar   19.525000   12.425000   12.425000
Ar   19.525000   12.425000   15.975000
Ar   19.525000   12.425000   19.525000
Ar   19.525000   12.425000   23.075000
Ar   19.525000   12.425000   26.625000
Ar   19.525000   15.975000    1.775000
Ar   19.525000   15.975000    5.325000
Ar   19.525000   15.975000    8.875000
Ar   19.525000   15.975000   12.425000
Ar   19.525000   15.975000   15.975000
Ar   19.525000   15.975000   19.525000
Ar   19.525000   15.975000   23.075000
Ar   19.525000   15.975000   26.625000
Ar   19.525000   19.525000    1.775000
Ar   19.525000   19.525000    5.325000
Ar   19.525000   19.525000    8.875000
Ar   19.525000   19.525000   12.425000
Ar   19.525000   19.525000   15.975000
Ar   19.525000   19.525000   19.525000
Ar   19.525000   19.525000   23.075000
Ar   19.525000   19.525000   26.625000
Ar   19.525000   23.075000    1.775000
Ar   19.525000   23.075000    5.325000
Ar   19.525000   23.075000    8.875000
Ar   19.525000   23.075000   12.425000
Ar   19.525000   23.075000   15.975000
Ar   19.525000   23.075000   19.525000
Ar   19.525000   23.075000   23.075000
Ar   19.525000   23.075000   26.625000
Ar   19.525000   26.625000    1.775000
Ar   19.525000   26.625000    5.325000
Ar   19.525000   26.625000    8.875000
Ar   19.525000   26.625000   12.425000
Ar   19.525000   26.625000   15.975000
Ar   19.525000   26.625000   19.525000
Ar   19.525000   26.625000   23.075000
Ar   19.525000   26.625000   26.625000
Ar   23.075000    1.775000    1.775000
Ar   23.075000    1.775000    5.325000
Ar   23.075000    1.775000    8.875000
Ar   23.075000    1.775000   12.425000
Ar   23.075000    1.775000   15.975000
Ar   23.075000    1.775000   19.525000
Ar   23.075000    1.775000   23.075000
Ar   23.075000    1.775000   26.625000
Ar   23.075000    5.325000    1.775000
Ar   23.075000    5.325000    5.325000
Ar   23.075000    5.325000    8.875000
Ar   23.075000    5.325000   12.425000
Ar   23.075000    5.325000   15.975000
Ar   23.075000    5.325000   19.525000
Ar   23.075000    5.325000   23.075000
Ar   23.075000    5.325000   26.625000
Ar   23.075000    8.875000    1.775000
Ar   23.075000    8.875000    5.325000
Ar   23.075000    8.875000    8.875000
Ar   23.075000    8.875000   12.425000
Ar   23.075000    8.875000   15.975000
Ar   23.075000    8.875000   19.525000
Ar   23.075000    8.875000   23.075000
Ar   23.075000    8.875000   26.625000
Ar   23.075000   12.425000    1.775000
Ar   23.075000   12.425000    5.325000
Ar   23.075000   12.425000    8.875000
Ar   23.075000   12.425000   12.425000
Ar   23.075000   12.425000   15.975000
Ar   23.075000   12.425000   19.525000
Ar   23.075000   12.425000   23.075000
Ar   23.075000   12.425000   26.625000
Ar   23.075000   15.975000    1.775000
Ar   23.075000   15.975000    5.325000
Ar   23.075000   15.975000    8.875000
Ar   23.075000   15.975000   12.425000
Ar   23.075000   15.975000   15.975000
Ar   23.075000   15.975000   19.525000
Ar   23.075000   15.975000   23.075000
Ar   23.075000   15.975000   26.625000
Ar   23.075000   19.525000    1.775000
Ar   23.075000   19.525000    5.325000
Ar   23.075000   19.525000    8.875000
Ar   23.075000   19.525000   12.425000
Ar   23.075000   19.525000   15.975000
Ar   23.075000   19.525000   19.525000
Ar   23.075000   19.525000   23.075000
Ar   23.075000   19.525000   26.625000
Ar   23.075000   23.075000    1.775000
Ar   23.075000   23.075000    5.325000
Ar   23.075000   23.075000    8.875000
Ar   23.075000   23.075000   12.425000
Ar   23.075000   23.075000   15.975000
Ar   23.075000   23.075000   19.525000
Ar   23.075000   23.075000   23.075000
Ar   23.075000   23.075000   26.625000
Ar   23.075000   26.625000    1.775000
Ar   23.075000   26.625000    5.325000
Ar   23.075000   26.625000    8.875000
Ar   23.075000   26.625000   12.425000
Ar   23.075000   26.625000   15.975000
Ar   23.075000   26.625000   19.525000
Ar   23.075000   26.625000   23.075000
Ar   23.075000   26.625000   26.625000
Ar   26.625000    1.775000    1.775000
Ar   26.625000    1.775000    5.325000
Ar   26.625000    1.775000    8.875000
Ar   26.625000    1.775000   12.425000
Ar   26.625000    1.775000   15.975000
Ar   26.625000    1.775000   19.525000
Ar   26.625000    1.775000   23.075000
Ar   26.625000    1.775000   26.625000
Ar   26.625000    5.325000    1.775000
Ar   26.625000    5.325000    5.325000
Ar   26.625000    5.325000    8.875000
Ar   26.625000    5.325000   12.425000
Ar   26.625000    5.325000   15.975000
Ar   26.625000    5.325000   19.525000
Ar   26.625000    5.325000   23.075000
Ar   26.625000    5.325000   26.625000
Ar   26.625000    8.875000    1.775000
Ar   26.625000    8.875000    5.325000
Ar   26.625000    8.875000    8.875000
Ar   26.625000    8.875000   12.425000
Ar   26.625000    8.875000   15.975000
Ar   26.625000    8.875000   19.525000
Ar   26.625000    8.875000   23.075000
Ar   26.625000    8.875000   26.625000
Ar   26.625000   12.425000    1.775000
Ar   26.625000   12.425000    5.325000
Ar   26.625000   12.425000    8.875000
Ar   26.625000   12.425000   12.425000
Ar   26.625000   12.425000   15.975000
Ar   26.625000   12.425000   19.525000
Ar   26.625000   12.425000   23.075000
Ar   26.625000   12.425000   26.625000
Ar   26.625000   15.975000    1.775000
Ar   26.625000   15.975000    5.325000
Ar   26.625000   15.975000    8.875000
Ar   26.625000   15.975000   12.425000
Ar   26.625000   15.975000   15.975000
Ar   26.625000   15.975000   19.525000
Ar   26.625000   15.975000   23.075000
Ar   26.625000   15.975000   26.625000
Ar   26.625000   19.525000    1.775000
Ar   26.625000   19.525000    5.325000
Ar   26.625000   19.525000    8.875000
Ar   26.625000   19.525000   12.425000
Ar   26.625000   19.525000   15.975000
Ar   26.625000   19.525000   19.525000
Ar   26.625000   19.525000   23.075000
Ar   26.625000   19.525000   26.625000
Ar   26.625000   23.075000    1.775000
Ar   26.625000   23.075000    5.325000
Ar   26.625000   23.075000    8.875000
Ar   26.625000   23.075000   12.425000
Ar   26.625000   23.075000   15.975000
Ar   26.625000   23.075000   19.525000
Ar   26.625000   23.075000   23.075000
Ar   26.625000   23.075000   26.625000
Ar   26.625000   26.625000    1.775000
Ar   26.625000   26.625000    5.325000
Ar   26.625000   26.625000    8.875000
Ar   26.625000   26.625000   12.425000
Ar   26.625000   26.625000   15.975000
Ar   26.625000   26.625000   19.525000
Ar   26.625000   26.625000   23.075000
Ar   26.625000   26.625000   26.625000
512 
Step 100 , box:   28.400    28.400    28.400
Ar    0.974105    2.854848    2.292232
Ar    1.897428    2.198534    5.297166
Ar    1.613779    0.729960    8.356213
Ar    2.168401    1.279788   11.609157
Ar    0.760870    1.967419   14.782222
Ar    1.188062    2.734553   19.401967
Ar    1.693282    2.066739   24.297423
Ar    2.700008    1.185780   27.716978
Ar    2.253068    5.690843    1.417900
Ar    2.040678    5.797197    5.370000
Ar    0.628118    4.002341    8.698421
Ar    2.844012    4.633972   11.353834
Ar    1.898026    5.779030   15.268526
Ar    0.491983    5.975818   19.357491
Ar    1.416344    4.643601   22.382649
Ar    1.906690    4.906196   25.756282
Ar    1.920733    8.899463    2.871904
Ar    1.281293   10.107935    6.713179
Ar    2.982724    8.635321    9.608671
Ar    2.114720    9.979520   12.883667
Ar    2.328644    9.395642   16.109459
Ar    1.521619    9.057416   19.105910
Ar    2.171756    8.008488   22.133233
Ar    2.603505    9.152963   26.921828
Ar    1.317856   12.233011    1.860347
Ar    2.245948   12.920600    5.085995
Ar    2.987848   12.510130    8.394211
Ar    2.493272   13.672435   11.549539
Ar    1.532221   12.681248   14.629423
Ar    0.642649   13.537772   19.908288
Ar    0.498293   12.263285   23.576129
Ar    0.933589   12.113532   26.586156
Ar    2.858649   15.259687    2.381676
Ar    1.701070   15.941365    5.239668
Ar    1.191001   16.162169    8.277232
Ar    1.046822   16.653486   11.601165
Ar    1.163009   16.402081   15.930421
Ar    1.653459   16.687700   19.053911
Ar    0.686332   16.173323   22.179933
Ar    1.318477   15.604754   27.029810
Ar    1.004826   20.012117    1.433882
Ar    1.939197   18.937633    4.380883
Ar    1.262032   19.551874    7.902605
Ar    1.154542   19.800961   11.405915
Ar    1.646052   19.479880   17.302931
Ar    0.978232   19.719619   20.532401
Ar    3.410324   20.151307   22.986013
Ar    1.843740   18.304721   25.610318
Ar    2.932150   22.988005    2.097397
Ar    2.557128   23.374325    5.509890
Ar    2.155122   22.614060   10.071788
Ar    2.304016   22.440858   12.952417
Ar    3.318918   22.431031   15.924160
Ar    2.851276   23.683004   18.782231
Ar    1.960206   23.306182   22.562364
Ar    1.450763   22.584206   27.579468
Ar    1.882089   26.663723    2.654679
Ar    2.030156   26.716576    5.811971
Ar    1.542047   26.076748    8.604520
Ar    1.819731   25.480184   12.384487
Ar    0.499142   26.550520   16.824580
Ar    0.585849   26.317320   19.979535
Ar    1.419653   27.537546   22.819847
Ar    2.258567   26.030947   26.906185
Ar    5.026230    2.105932    2.342773
Ar    5.006152    2.153776    5.370253
Ar    5.182884    2.378208    8.463703
Ar    5.475266    1.606875   11.813241
Ar    6.247889    1.660046   15.860728
Ar    4.463769    2.158756   18.914707
Ar    6.432704    2.381559   21.988253
Ar    6.515173    1.870416   25.816590
Ar    5.813470    4.821524    0.841005
Ar    5.810960    5.082013    4.268814
Ar    5.593576    5.037472   10.149668
Ar    5.499359    4.660615   13.533224
Ar    5.907632    5.097352   16.624279
Ar    4.385815    6.311745   19.249749
Ar    4.449876    5.627103   23.113745
Ar    5.175122    5.914635   26.356714
Ar    5.723775    8.242720    1.495790
Ar    4.850877    8.016244    5.371532
Ar    6.186230    7.735985    8.696707
Ar    5.344373    7.781214   11.724214
Ar    5.872393    8.294460   15.190718
Ar    6.037726   10.112898   20.057265
Ar    6.566463    8.790823   23.940657
Ar    5.624806   10.103553   27.099004
Ar    4.684765   12.842845    1.394179
Ar    5.200925   11.711404    5.287739
Ar    5.863577   10.944308    9.510948
Ar    5.717556   13.123401   12.998974
Ar    5.235678   11.337005   16.231984
Ar    4.582394   13.320708   19.132917
Ar    4.396243   12.658045   22.142493
Ar    6.810692   12.773621   25.764875
Ar    5.792700   16.035747    2.037419
Ar    5.285321   15.505914    5.602613
Ar    4.392826   15.087945    8.725465
Ar    5.814254   16.360777   11.504122
Ar    5.591638   15.302220   15.450830
Ar    6.037999   16.630066   18.780401
Ar    5.808791   15.922069   22.304256
Ar    4.319680   15.590521   26.459852
Ar    5.530005   19.073049    1.062107
Ar    5.418776   19.381468    5.605356
Ar    5.901621   19.751259    9.471389
Ar    4.410841   19.125422   13.075825
Ar    4.973810   19.064335   16.411234
Ar    4.281558   20.812590   19.483733
Ar    6.765251   20.203843   22.292632
Ar    5.191221   20.284559   25.888364
Ar    5.671593   24.018331    2.826069
Ar    6.349838   23.473923    5.792979
Ar    4.862348   23.285926    8.589793
Ar    5.700132   22.599047   12.936826
Ar    6.528231   23.063402   16.566992
Ar    6.651951   24.340659   19.585781
Ar    5.325153   22.950521   23.732921
Ar    5.925626   23.418398   27.820568
Ar    5.915697   27.319974    2.296839
Ar    5.117087   26.918899    5.460607
Ar    5.089509   26.671548    8.602577
Ar    5.479865   25.615940   12.009048
Ar    5.119795   25.740699   15.574045
Ar    5.655372   27.443839   19.553961
Ar    4.236741   25.852919   22.713780
Ar    5.269744   26.982378   26.593116
Ar    8.214999    2.586556    2.221182
Ar    8.059343    2.516099    6.018949
Ar    9.371919    0.925856    9.014118
Ar    8.538113    1.808539   13.614904
Ar    9.344553    2.214745   16.780234
Ar    9.749983    2.364773   19.805220
Ar    8.988482    0.678205   23.329388
Ar    9.228288    0.776578   26.818940
Ar    9.275273    5.760205    2.354776
Ar    9.365942    5.603313    5.455197
Ar    9.368273    5.057011    8.600598
Ar    8.255026    5.785754   11.499640
Ar    9.046789    5.156097   15.386538
Ar    8.097218    5.458131   19.193234
Ar    7.651956    5.491786   22.989481
Ar    8.220877    5.694729   26.946102
Ar    9.982793    9.058886    1.757120
Ar    8.414699    9.566967    5.481168
Ar    9.003635    9.194916    9.311150
Ar    9.000997    8.967011   12.819309
Ar    9.678871    8.124913   15.709418
Ar    8.777981    8.320677   19.644649
Ar    9.515563    9.722214   22.914591
Ar    8.517039    9.016927   26.337757
Ar    7.948046   13.616701    1.864348
Ar    8.119128   12.596591    5.432243
Ar    9.019127   12.782058    8.642548
Ar    9.108373   13.046454   12.795882
Ar    8.739842   12.983407   15.993792
Ar    8.234251   11.741969   18.937497
Ar    8.064394   12.561374   22.766699
Ar   10.352740   13.414237   25.737196
Ar    8.868414   16.586701    1.886820
Ar    9.022118   15.483814    5.189286
Ar    9.053367   15.834399    9.567274
Ar    9.163443   16.312807   12.674024
Ar   10.307806   17.023431   15.458308
Ar   10.016201   16.166432   20.184595
Ar    9.300439   15.651005   23.237665
Ar    7.837544   16.154188   26.213246
Ar    8.396671   20.273558    1.475660
Ar    9.008511   18.567233    4.645589
Ar    9.307252   19.006542    8.762081
Ar    8.461857   19.909518   12.209763
Ar    8.369904   19.542674   15.721486
Ar    7.805441   19.162764   19.623553
Ar    9.322081   18.590851   22.907411
Ar    9.093801   18.968113   26.414013
Ar    8.972330   23.069446    2.328899
Ar    9.666561   22.609144    5.428717
Ar    8.037116   22.291721    8.484021
Ar    8.632838   23.181552   11.521164
Ar    9.728571   24.013642   14.846019
Ar    9.008425   22.071416   20.401934
Ar    9.370221   21.829077   23.321137
Ar    9.128967   22.222857   26.585942
Ar    9.327058   27.431804    1.496683
Ar    8.202796   28.063796    4.629675
Ar    9.991725   25.954817    9.369887
Ar    9.198734   26.222911   13.028303
Ar    9.891869   27.713037   15.972458
Ar    9.427977   26.255329   19.062379
Ar    7.569697   26.039924   24.018145
Ar    8.300535   25.774096   27.196236
Ar   11.237783    1.268480    2.468480
Ar   12.653551    1.230375    5.202857
Ar   12.835582    2.160873    8.546711
Ar   11.920445    1.679363   12.044960
Ar   12.355429    1.806886   15.842709
Ar   12.651597    1.266420   18.829203
Ar   11.617332    2.499344   22.315723
Ar   12.348023    1.275481   26.252225
Ar   12.628829    6.401425    1.716379
Ar   12.774957    5.613879    5.710016
Ar   12.347626    5.486999    9.227042
Ar   13.336777    4.685370   12.525395
Ar   12.367227    5.339688   16.020996
Ar   12.510305    6.113152   20.670402
Ar   12.052670    5.087832   23.890224
Ar   12.979222    4.713691   26.865111
Ar   13.152432   10.002650    1.354875
Ar   13.295112    9.085574    4.715737
Ar   13.306564    8.533216    8.511862
Ar   12.356018    8.404587   13.165255
Ar   12.678744    9.485390   17.275372
Ar   11.766047    9.395328   20.411002
Ar   12.369016    8.398933   23.282411
Ar   11.502737    8.179949   26.248026
Ar   11.055944   13.174447    1.657008
Ar   11.754232   13.333631    5.320674
Ar   13.326347   11.665108    8.838075
Ar   11.801978   11.825040   12.837421
Ar   12.764374   12.325854   16.041887
Ar   11.451306   12.159350   18.909003
Ar   12.422846   11.965701   23.357350
Ar   12.767216   11.191052   27.035461
Ar   13.660274   16.003422    1.337774
Ar   12.333833   16.427295    4.899301
Ar   13.199610   15.352535    8.661031
Ar   12.502671   16.734494   11.895940
Ar   12.593871   15.393488   16.107687
Ar   13.108988   16.798596   19.087631
Ar   12.407565   15.801545   22.879505
Ar   11.861804   16.345752   26.554275
Ar   11.418005   18.874329    1.368014
Ar   13.027110   19.617038    4.590902
Ar   12.704423   18.904690    8.231312
Ar   11.745335   19.884941   13.582332
Ar   11.598980   20.674608   16.776668
Ar   12.837179   19.779737   19.794698
Ar   12.812061   19.071185   22.919858
Ar   12.203823   20.589087   26.572736
Ar   12.585555   24.040526    3.155713
Ar   13.802993   24.029809    6.240806
Ar   11.334669   21.642492    9.285645
Ar   11.913673   24.210812   12.046354
Ar   12.533934   23.607695   16.849508
Ar   12.150392   22.874596   20.032329
Ar   11.881863   24.476431   23.448966
Ar   14.161043   23.392262   26.702232
Ar   13.031497   26.848850    0.615201
Ar   11.386119   26.579528    4.147573
Ar   12.793749   26.980922    7.148022
Ar   12.178285   27.264074   10.853573
Ar   12.951371   27.025320   15.981351
Ar   12.921052   26.324882   19.463500