512 
Step 0 , box:   28.400    28.400    28.400
Ar    1.775000    1.775000    1.775000
Ar    1.775000    1.775000    5.325000
Ar    1.775000    1.775000    8.875000
Ar    1.775000    1.775000   12.425000
Ar    1.775000    1.775000   15.975000
Ar    1.775000    1.775000   19.525000
Ar    1.775000    1.775000   23.075000
Ar    1.775000    1.775000   26.625000
Ar    1.775000    5.325000    1.775000
Ar    1.775000    5.325000    5.325000
Ar    1.775000    5.325000    8.875000
Ar    1.775000    5.325000   12.425000
Ar    1.775000    5.325000   15.975000
Ar    1.775000    5.325000   19.525000
Ar    1.775000    5.325000   23.075000
Ar    1.775000    5.325000   26.625000
Ar    1.775000    8.875000    1.775000
Ar    1.775000    8.875000    5.325000
Ar    1.775000    8.875000    8.875000
Ar    1.775000    8.875000   12.425000
Ar    1.775000    8.875000   15.975000
Ar    1.775000    8.875000   19.525000
Ar    1.775000    8.875000   23.075000
Ar    1.775000    8.875000   26.625000
Ar    1.775000   12.425000    1.775000
Ar    1.775000   12.425000    5.325000
Ar    1.775000   12.425000    8.875000
Ar    1.775000   12.425000   12.425000
Ar    1.775000   12.425000   15.975000
Ar    1.775000   12.425000   19.525000
Ar    1.775000   12.425000   23.075000
Ar    1.775000   12.425000   26.625000
Ar    1.775000   15.975000    1.775000
Ar    1.775000   15.975000    5.325000
Ar    1.775000   15.975000    8.875000
Ar    1.775000   15.975000   12.425000
Ar    1.775000   15.975000   15.975000
Ar    1.775000   15.975000   19.525000
Ar    1.775000   15.975000   23.075000
Ar    1.775000   15.975000   26.625000
Ar    1.775000   19.525000    1.775000
Ar    1.775000   19.525000    5.325000
Ar    1.775000   19.525000    8.875000
Ar    1.775000   19.525000   12.425000
Ar    1.775000   19.525000   15.975000
Ar    1.775000   19.525000   19.525000
Ar    1.775000   19.525000   23.075000
Ar    1.775000   19.525000   26.625000
Ar    1.775000   23.075000    1.775000
Ar    1.775000   23.075000    5.325000
Ar    1.775000   23.075000    8.875000
Ar    1.775000   23.075000   12.425000
Ar    1.775000   23.075000   15.975000
Ar    1.775000   23.075000   19.525000
Ar    1.775000   23.075000   23.075000
Ar    1.775000   23.075000   26.625000
Ar    1.775000   26.625000    1.775000
Ar    1.775000   26.625000    5.325000
Ar    1.775000   26.625000    8.875000
Ar    1.775000   26.625000   12.425000
Ar    1.775000   26.625000   15.975000
Ar    1.775000   26.625000   19.525000
Ar    1.775000   26.625000   23.075000
Ar    1.775000   26.625000   26.625000
Ar    5.325000    1.775000    1.775000
Ar    5.325000    1.775000    5.325000
Ar    5.325000    1.775000    8.875000
Ar    5.325000    1.775000   12.425000
Ar    5.325000    1.775000   15.975000
Ar    5.325000    1.775000   19.525000
Ar    5.325000    1.775000   23.075000
Ar    5.325000    1.775000   26.625000
Ar    5.325000    5.325000    1.775000
Ar    5.325000    5.325000    5.325000
Ar    5.325000    5.325000    8.875000
Ar    5.325000    5.325000   12.425000
Ar    5.325000    5.325000   15.975000
Ar    5.325000    5.325000   19.525000
Ar    5.325000    5.325000   23.075000
Ar    5.325000    5.325000   26.625000
Ar    5.325000    8.875000    1.775000
Ar    5.325000    8.875000    5.325000
Ar    5.325000    8.875000    8.875000
Ar    5.325000    8.875000   12.425000
Ar    5.325000    8.875000   15.975000
Ar    5.325000    8.875000   19.525000
Ar    5.325000    8.875000   23.075000
Ar    5.325000    8.875000   26.625000
Ar    5.325000   12.425000    1.775000
Ar    5.325000   12.425000    5.325000
Ar    5.325000   12.425000    8.875000
Ar    5.325000   12.425000   12.425000
Ar    5.325000   12.425000   15.975000
Ar    5.325000   12.425000   19.525000
Ar    5.325000   12.425000   23.075000
Ar    5.325000   12.425000   26.625000
Ar    5.325000   15.975000    1.775000
Ar    5.325000   15.975000    5.325000
Ar    5.325000   15.975000    8.875000
Ar    5.325000   15.975000   12.425000
Ar    5.325000   15.975000   15.975000
Ar    5.325000   15.975000   19.525000
Ar    5.325000   15.975000   23.075000
Ar    5.325000   15.975000   26.625000
Ar    5.325000   19.525000    1.775000
Ar    5.325000   19.525000    5.325000
Ar    5.325000   19.525000    8.875000
Ar    5.325000   19.525000   12.425000
Ar    5.325000   19.525000   15.975000
Ar    5.325000   19.525000   19.525000
Ar    5.325000   19.525000   23.075000
Ar    5.325000   19.525000   26.625000
Ar    5.325000   23.075000    1.775000
Ar    5.325000   23.075000    5.325000
Ar    5.325000   23.075000    8.875000
Ar    5.325000   23.075000   12.425000
Ar    5.325000   23.075000   15.975000
Ar    5.325000   23.075000   19.525000
Ar    5.325000   23.075000   23.075000
Ar    5.325000   23.075000   26.625000
Ar    5.325000   26.625000    1.775000
Ar    5.325000   26.625000    5.325000
Ar    5.325000   26.625000    8.875000
Ar    5.325000   26.625000   12.425000
Ar    5.325000   26.625000   15.975000
Ar    5.325000   26.625000   19.525000
Ar    5.325000   26.625000   23.075000
Ar    5.325000   26.625000   26.625000
Ar    8.875000    1.775000    1.775000
Ar    8.875000    1.775000    5.325000
Ar    8.875000    1.775000    8.875000
Ar    8.875000    1.775000   12.425000
Ar    8.875000    1.775000   15.975000
Ar    8.875000    1.775000   19.525000
Ar    8.875000    1.775000   23.075000
Ar    8.875000    1.775000   26.625000
Ar    8.875000    5.325000    1.775000
Ar    8.875000    5.325000    5.325000
Ar    8.875000    5.325000    8.875000
Ar    8.875000    5.325000   12.425000
Ar    8.875000    5.325000   15.975000
Ar    8.875000    5.325000   19.525000
Ar    8.875000    5.325000   23.075000
Ar    8.875000    5.325000   26.625000
Ar    8.875000    8.875000    1.775000
Ar    8.875000    8.875000    5.325000
Ar    8.875000    8.875000    8.875000
Ar    8.875000    8.875000   12.425000
Ar    8.875000    8.875000   15.975000
Ar    8.875000    8.875000   19.525000
Ar    8.875000    8.875000   23.075000
Ar    8.875000    8.875000   26.625000
Ar    8.875000   12.425000    1.775000
Ar    8.875000   12.425000    5.325000
Ar    8.875000   12.425000    8.875000
Ar    8.875000   12.425000   12.425000
Ar    8.875000   12.425000   15.975000
Ar    8.875000   12.425000   19.525000
Ar    8.875000   12.425000   23.075000
Ar    8.875000   12.425000   26.625000
Ar    8.875000   15.975000    1.775000
Ar    8.875000   15.975000    5.325000
Ar    8.875000   15.975000    8.875000
Ar    8.875000   15.975000   12.425000
Ar    8.875000   15.975000   15.975000
Ar    8.875000   15.975000   19.525000
Ar    8.875000   15.975000   23.075000
Ar    8.875000   15.975000   26.625000
Ar    8.875000   19.525000    1.775000
Ar    8.875000   19.525000    5.325000
Ar    8.875000   19.525000    8.875000
Ar    8.875000   19.525000   12.425000
Ar    8.875000   19.525000   15.975000
Ar    8.875000   19.525000   19.525000
Ar    8.875000   19.525000   23.075000
Ar    8.875000   19.525000   26.625000
Ar    8.875000   23.075000    1.775000
Ar    8.875000   23.075000    5.325000
Ar    8.875000   23.075000    8.875000
Ar    8.875000   23.075000   12.425000
Ar    8.875000   23.075000   15.975000
Ar    8.875000   23.075000   19.525000
Ar    8.875000   23.075000   23.075000
Ar    8.875000   23.075000   26.625000
Ar    8.875000   26.625000    1.775000
Ar    8.875000   26.625000    5.325000
Ar    8.875000   26.625000    8.875000
Ar    8.875000   26.625000   12.425000
Ar    8.875000   26.625000   15.975000
Ar    8.875000   26.625000   19.525000
Ar    8.875000   26.625000   23.075000
Ar    8.875000   26.625000   26.625000
Ar   12.425000    1.775000    1.775000
Ar   12.425000    1.775000    5.325000
Ar   12.425000    1.775000    8.875000
Ar   12.425000    1.775000   12.425000
Ar   12.425000    1.775000   15.975000
Ar   12.425000    1.775000   19.525000
Ar   12.425000    1.775000   23.075000
Ar   12.425000    1.775000   26.625000
Ar   12.425000    5.325000    1.775000
Ar   12.425000    5.325000    5.325000
Ar   12.425000    5.325000    8.875000
Ar   12.425000    5.325000   12.425000
Ar   12.425000    5.325000   15.975000
Ar   12.425000    5.325000   19.525000
Ar   12.425000    5.325000   23.075000
Ar   12.425000    5.325000   26.625000
Ar   12.425000    8.875000    1.775000
Ar   12.425000    8.875000    5.325000
Ar   12.425000    8.875000    8.875000
Ar   12.425000    8.875000   12.425000
Ar   12.425000    8.875000   15.975000
Ar   12.425000    8.875000   19.525000
Ar   12.425000    8.875000   23.075000
Ar   12.425000    8.875000   26.625000
Ar   12.425000   12.425000    1.775000
Ar   12.425000   12.425000    5.325000
Ar   12.425000   12.425000    8.875000
Ar   12.425000   12.425000   12.425000
Ar   12.425000   12.425000   15.975000
Ar   12.425000   12.425000   19.525000
Ar   12.425000   12.425000   23.075000
Ar   12.425000   12.425000   26.625000
Ar   12.425000   15.975000    1.775000
Ar   12.425000   15.975000    5.325000
Ar   12.425000   15.975000    8.875000
Ar   12.425000   15.975000   12.425000
Ar   12.425000   15.975000   15.975000
Ar   12.425000   15.975000   19.525000
Ar   12.425000   15.975000   23.075000
Ar   12.425000   15.975000   26.625000
Ar   12.425000   19.525000    1.775000
Ar   12.425000   19.525000    5.325000
Ar   12.425000   19.525000    8.875000
Ar   12.425000   19.525000   12.425000
Ar   12.425000   19.525000   15.975000
Ar   12.425000   19.525000   19.525000
Ar   12.425000   19.525000   23.075000
Ar   12.425000   19.525000   26.625000
Ar   12.425000   23.075000    1.775000
Ar   12.425000   23.075000    5.325000
Ar   12.425000   23.075000    8.875000
Ar   12.425000   23.075000   12.425000
Ar   12.425000   23.075000   15.975000
Ar   12.425000   23.075000   19.525000
Ar   12.425000   23.075000   23.075000
Ar   12.425000   23.075000   26.625000
Ar   12.425000   26.625000    1.775000
Ar   12.425000   26.625000    5.325000
Ar   12.425000   26.625000    8.875000
Ar   12.425000   26.625000   12.425000
Ar   12.425000   26.625000   15.975000
Ar   12.425000   26.625000   19.525000
Ar   12.425000   26.625000   23.075000
Ar   12.425000   26.625000   26.625000
Ar   15.975000    1.775000    1.775000
Ar   15.975000    1.775000    5.325000
Ar   15.975000    1.775000    8.875000
Ar   15.975000    1.775000   12.425000
Ar   15.975000    1.775000   15.975000
Ar   15.975000    1.775000   19.525000
Ar   15.975000    1.775000   23.075000
Ar   15.975000    1.775000   26.625000
Ar   15.975000    5.325000    1.775000
Ar   15.975000    5.325000    5.325000
Ar   15.975000    5.325000    8.875000
Ar   15.975000    5.325000   12.425000
Ar   15.975000    5.325000   15.975000
Ar   15.975000    5.325000   19.525000
Ar   15.975000    5.325000   23.075000
Ar   15.975000    5.325000   26.625000
Ar   15.975000    8.875000    1.775000
Ar   15.975000    8.875000    5.325000
Ar   15.975000    8.875000    8.875000
Ar   15.975000    8.875000   12.425000
Ar   15.975000    8.875000   15.975000
Ar   15.975000    8.875000   19.525000
Ar   15.975000    8.875000   23.075000
Ar   15.975000    8.875000   26.625000
Ar   15.975000   12.425000    1.775000
Ar   15.975000   12.425000    5.325000
Ar   15.975000   12.425000    8.875000
Ar   15.975000   12.425000   12.425000
Ar   15.975000   12.425000   15.975000
Ar   15.975000   12.425000   19.525000
Ar   15.975000   12.425000   23.075000
Ar   15.975000   12.425000   26.625000
Ar   15.975000   15.975000    1.775000
Ar   15.975000   15.975000    5.325000
Ar   15.975000   15.975000    8.875000
Ar   15.975000   15.975000   12.425000
Ar   15.975000   15.975000   15.975000
Ar   15.975000   15.975000   19.525000
Ar   15.975000   15.975000   23.075000
Ar   15.975000   15.975000   26.625000
Ar   15.975000   19.525000    1.775000
Ar   15.975000   19.525000    5.325000
Ar   15.975000   19.525000    8.875000
Ar   15.975000   19.525000   12.425000
Ar   15.975000   19.525000   15.975000
Ar   15.975000   19.525000   19.525000
Ar   15.975000   19.525000   23.075000
Ar   15.975000   19.525000   26.625000
Ar   15.975000   23.075000    1.775000
Ar   15.975000   23.075000    5.325000
Ar   15.975000   23.075000    8.875000
Ar   15.975000   23.075000   12.425000
Ar   15.975000   23.075000   15.975000
Ar   15.975000   23.075000   19.525000
Ar   15.975000   23.075000   23.075000
Ar   15.975000   23.075000   26.625000
Ar   15.975000   26.625000    1.775000
Ar   15.975000   26.625000    5.325000
Ar   15.975000   26.625000    8.875000
Ar   15.975000   26.625000   12.425000
Ar   15.975000   26.625000   15.975000
Ar   15.975000   26.625000   19.525000
Ar   15.975000   26.625000   23.075000
Ar   15.975000   26.625000   26.625000
Ar   19.525000    1.775000    1.775000
Ar   19.525000    1.775000    5.325000
Ar   19.525000    1.775000    8.875000
Ar   19.525000    1.775000   12.425000
Ar   19.525000    1.775000   15.975000
Ar   19.525000    1.775000   19.525000
Ar   19.525000    1.775000   23.075000
Ar   19.525000    1.775000   26.625000
Ar   19.525000    5.325000    1.775000
Ar   19.525000    5.325000    5.325000
Ar   19.525000    5.325000    8.875000
Ar   19.525000    5.325000   12.425000
Ar   19.525000    5.325000   15.975000
Ar   19.525000    5.325000   19.525000
Ar   19.525000    5.325000   23.075000
Ar   19.525000    5.325000   26.625000
Ar   19.525000    8.875000    1.775000
Ar   19.525000    8.875000    5.325000
Ar   19.525000    8.875000    8.875000
Ar   19.525000    8.875000   12.425000
Ar   19.525000    8.875000   15.975000
Ar   19.525000    8.875000   19.525000
Ar   19.525000    8.875000   23.075000
Ar   19.525000    8.875000   26.625000
Ar   19.525000   12.425000    1.775000
Ar   19.525000   12.425000    5.325000
Ar   19.525000   12.425000    8.875000
Ar   19.525000   12.425000   12.425000
Ar   19.525000   12.425000   15.975000
Ar   19.525000   12.425000   19.525000
Ar   19.525000   12.425000   23.075000
Ar   19.525000   12.425000   26.625000
Ar   19.525000   15.975000    1.775000
Ar   19.525000   15.975000    5.325000
Ar   19.525000   15.975000    8.875000
Ar   19.525000   15.975000   12.425000
Ar   19.525000   15.975000   15.975000
Ar   19.525000   15.975000   19.525000
Ar   19.525000   15.975000   23.075000
Ar   19.525000   15.975000   26.625000
Ar   19.525000   19.525000    1.775000
Ar   19.525000   19.525000    5.325000
Ar   19.525000   19.525000    8.875000
Ar   19.525000   19.525000   12.425000
Ar   19.525000   19.525000   15.975000
Ar   19.525000   19.525000   19.525000
Ar   19.525000   19.525000   23.075000
Ar   19.525000   19.525000   26.625000
Ar   19.525000   23.075000    1.775000
Ar   19.525000   23.075000    5.325000
Ar   19.525000   23.075000    8.875000
Ar   19.525000   23.075000   12.425000
Ar   19.525000   23.075000   15.975000
Ar   19.525000   23.075000   19.525000
Ar   19.525000   23.075000   23.075000
Ar   19.525000   23.075000   26.625000
Ar   19.525000   26.625000    1.775000
Ar   19.525000   26.625000    5.325000
Ar   19.525000   26.625000    8.875000
Ar   19.525000   26.625000   12.425000
Ar   19.525000   26.625000   15.975000
Ar   19.525000   26.625000   19.525000
Ar   19.525000   26.625000   23.075000
Ar   19.525000   26.625000   26.625000
Ar   23.075000    1.775000    1.775000
Ar   23.075000    1.775000    5.325000
Ar   23.075000    1.775000    8.875000
Ar   23.075000    1.775000   12.425000
Ar   23.075000    1.775000   15.975000
Ar   23.075000    1.775000   19.525000
Ar   23.075000    1.775000   23.075000
Ar   23.075000    1.775000   26.625000
Ar   23.075000    5.325000    1.775000
Ar   23.075000    5.325000    5.325000
Ar   23.075000    5.325000    8.875000
Ar   23.075000    5.325000   12.425000
Ar   23.075000    5.325000   15.975000
Ar   23.075000    5.325000   19.525000
Ar   23.075000    5.325000   23.075000
Ar   23.075000    5.325000   26.625000
Ar   23.075000    8.875000    1.775000
Ar   23.075000    8.875000    5.325000
Ar   23.075000    8.875000    8.875000
Ar   23.075000    8.875000   12.425000
Ar   23.075000    8.875000   15.975000
Ar   23.075000    8.875000   19.525000
Ar   23.075000    8.875000   23.075000
Ar   23.075000    8.875000   26.625000
Ar   23.075000   12.425000    1.775000
Ar   23.075000   12.425000    5.325000
Ar   23.075000   12.425000    8.875000
Ar   23.075000   12.425000   12.425000
Ar   23.075000   12.425000   15.975000
Ar   23.075000   12.425000   19.525000
Ar   23.075000   12.425000   23.075000
Ar   23.075000   12.425000   26.625000
Ar   23.075000   15.975000    1.775000
Ar   23.075000   15.975000    5.325000
Ar   23.075000   15.975000    8.875000
Ar   23.075000   15.975000   12.425000
Ar   23.075000   15.975000   15.975000
Ar   23.075000   15.975000   19.525000
Ar   23.075000   15.975000   23.075000
Ar   23.075000   15.975000   26.625000
Ar   23.075000   19.525000    1.775000
Ar   23.075000   19.525000    5.325000
Ar   23.075000   19.525000    8.875000
Ar   23.075000   19.525000   12.425000
Ar   23.075000   19.525000   15.975000
Ar   23.075000   19.525000   19.525000
Ar   23.075000   19.525000   23.075000
Ar   23.075000   19.525000   26.625000
Ar   23.075000   23.075000    1.775000
Ar   23.075000   23.075000    5.325000
Ar   23.075000   23.075000    8.875000
Ar   23.075000   23.075000   12.425000
Ar   23.075000   23.075000   15.975000
Ar   23.075000   23.075000   19.525000
Ar   23.075000   23.075000   23.075000
Ar   23.075000   23.075000   26.625000
Ar   23.075000   26.625000    1.775000
Ar   23.075000   26.625000    5.325000
Ar   23.075000   26.625000    8.875000
Ar   23.075000   26.625000   12.425000
Ar   23.075000   26.625000   15.975000
Ar   23.075000   26.625000   19.525000
Ar   23.075000   26.625000   23.075000
Ar   23.075000   26.625000   26.625000
Ar   26.625000    1.775000    1.775000
Ar   26.625000    1.775000    5.325000
Ar   26.625000    1.775000    8.875000
Ar   26.625000    1.775000   12.425000
Ar   26.625000    1.775000   15.975000
Ar   26.625000    1.775000   19.525000
Ar   26.625000    1.775000   23.075000
Ar   26.625000    1.775000   26.625000
Ar   26.625000    5.325000    1.775000
Ar   26.625000    5.325000    5.325000
Ar   26.625000    5.325000    8.875000
Ar   26.625000    5.325000   12.425000
Ar   26.625000    5.325000   15.975000
Ar   26.625000    5.325000   19.525000
Ar   26.625000    5.325000   23.075000
Ar   26.625000    5.325000   26.625000
Ar   26.625000    8.875000    1.775000
Ar   26.625000    8.875000    5.325000
Ar   26.625000    8.875000    8.875000
Ar   26.625000    8.875000   12.425000
Ar   26.625000    8.875000   15.975000
Ar   26.625000    8.875000   19.525000
Ar   26.625000    8.875000   23.075000
Ar   26.625000    8.875000   26.625000
Ar   26.625000   12.425000    1.775000
Ar   26.625000   12.425000    5.325000
Ar   26.625000   12.425000    8.875000
Ar   26.625000   12.425000   12.425000
Ar   26.625000   12.425000   15.975000
Ar   26.625000   12.425000   19.525000
Ar   26.625000   12.425000   23.075000
Ar   26.625000   12.425000   26.625000
Ar   26.625000   15.975000    1.775000
Ar   26.625000   15.975000    5.325000
Ar   26.625000   15.975000    8.875000
Ar   26.625000   15.975000   12.425000
Ar   26.625000   15.975000   15.975000
Ar   26.625000   15.975000   19.525000
Ar   26.625000   15.975000   23.075000
Ar   26.625000   15.975000   26.625000
Ar   26.625000   19.525000    1.775000
Ar   26.625000   19.525000    5.325000
Ar   26.625000   19.525000    8.875000
Ar   26.625000   19.525000   12.425000
Ar   26.625000   19.525000   15.975000
Ar   26.625000   19.525000   19.525000
Ar   26.625000   19.525000   23.075000
Ar   26.625000   19.525000   26.625000
Ar   26.625000   23.075000    1.775000
Ar   26.625000   23.075000    5.325000
Ar   26.625000   23.075000    8.875000
Ar   26.625000   23.075000   12.425000
Ar   26.625000   23.075000   15.975000
Ar   26.625000   23.075000   19.525000
Ar   26.625000   23.075000   23.075000
Ar   26.625000   23.075000   26.625000
Ar   26.625000   26.625000    1.775000
Ar   26.625000   26.625000    5.325000
Ar   26.625000   26.625000    8.875000
Ar   26.625000   26.625000   12.425000
Ar   26.625000   26.625000   15.975000
Ar   26.625000   26.625000   19.525000
Ar   26.625000   26.625000   23.075000
Ar   26.625000   26.625000   26.625000
512 
Step 1 , box:   28.400    28.400    28.400
Ar    1.774764    1.775001    1.774815
Ar    1.775163    1.774939    5.324779
Ar    1.775139    1.775113    8.875213
Ar    1.775081    1.774946   12.424928
Ar    1.775085    1.774848   15.975101
Ar    1.774941    1.774966   19.525156
Ar    1.775177    1.775160   23.075078
Ar    1.774905    1.774833   26.624933
Ar    1.774943    5.324982    1.774937
Ar    1.775068    5.324822    5.325043
Ar    1.774987    5.325181    8.875037
Ar    1.774842    5.324928   12.424911
Ar    1.774788    5.325083   15.974884
Ar    1.775011    5.325083   19.525046
Ar    1.774812    5.324951   23.074813
Ar    1.774816    5.324853   26.625055
Ar    1.775156    8.874895    1.774910
Ar    1.774974    8.874986    5.324830
Ar    1.774979    8.875140    8.874841
Ar    1.775057    8.874946   12.424958
Ar    1.775183    8.874953   15.974795
Ar    1.775134    8.875046   19.525002
Ar    1.774910    8.874930   23.074777
Ar    1.775159    8.874851   26.624854
Ar    1.775193   12.424900    1.774851
Ar    1.775037   12.424953    5.324841
Ar    1.774940   12.424986    8.874783
Ar    1.775037   12.424883   12.425104
Ar    1.775053   12.425157   15.974775
Ar    1.775007   12.425172   19.524816
Ar    1.774787   12.424791   23.074925
Ar    1.774789   12.425070   26.625186
Ar    1.775043   15.974818    1.775017
Ar    1.775214   15.975157    5.324983
Ar    1.774819   15.975163    8.874876
Ar    1.774780   15.974769   12.424947
Ar    1.775027   15.975129   15.975197
Ar    1.775209   15.974907   19.524955
Ar    1.774905   15.974819   23.075170
Ar    1.774786   15.974885   26.625169
Ar    1.775084   19.525011    1.775221
Ar    1.775089   19.525117    5.324986
Ar    1.775034   19.524977    8.875006
Ar    1.774942   19.524966   12.424949
Ar    1.774827   19.525213   15.975088
Ar    1.775106   19.524768   19.524970
Ar    1.774939   19.525191   23.074989
Ar    1.774861   19.524970   26.624815
Ar    1.775015   23.075090    1.775234
Ar    1.774987   23.075079    5.324810
Ar    1.775166   23.074894    8.875204
Ar    1.774899   23.075120   12.424928
Ar    1.775199   23.075154   15.975076
Ar    1.775207   23.075180   19.525000
Ar    1.775181   23.075034   23.074788
Ar    1.774981   23.075082   26.624961
Ar    1.775205   26.624953    1.774896
Ar    1.775068   26.624870    5.325215
Ar    1.775153   26.624796    8.875019
Ar    1.774971   26.624990   12.424878
Ar    1.775218   26.625150   15.974939
Ar    1.774928   26.624928   19.525205
Ar    1.775032   26.624908   23.075211
Ar    1.774901   26.625180   26.625147
Ar    5.324984    1.774770    1.774947
Ar    5.324931    1.774914    5.325100
Ar    5.324903    1.775165    8.874869
Ar    5.324832    1.775047   12.425220
Ar    5.324823    1.774902   15.974903
Ar    5.325199    1.775055   19.525185
Ar    5.325057    1.774932   23.075006
Ar    5.325043    1.774908   26.625029
Ar    5.324934    5.324809    1.775006
Ar    5.325093    5.324919    5.325057
Ar    5.324820    5.324958    8.875070
Ar    5.325125    5.325136   12.424882
Ar    5.325155    5.324926   15.975089
Ar    5.324979    5.325012   19.525092
Ar    5.325193    5.324792   23.074994
Ar    5.325027    5.325078   26.624932
Ar    5.324976    8.874893    1.774784
Ar    5.325085    8.874915    5.324831
Ar    5.325227    8.874803    8.875163
Ar    5.324818    8.875084   12.425160
Ar    5.324809    8.874902   15.975127
Ar    5.325220    8.874886   19.525137
Ar    5.324831    8.875040   23.074820
Ar    5.324811    8.874951   26.624825
Ar    5.325180   12.425028    1.774934
Ar    5.325199   12.425149    5.324837
Ar    5.324798   12.425217    8.874943
Ar    5.325178   12.425217   12.424780
Ar    5.324922   12.425074   15.974891
Ar    5.324767   12.424833   19.525072
Ar    5.325098   12.425047   23.074794
Ar    5.325176   12.425079   26.624926
Ar    5.325173   15.975072    1.774824
Ar    5.324785   15.975144    5.325162
Ar    5.325181   15.974876    8.875086
Ar    5.325000   15.975006   12.424974
Ar    5.325019   15.974989   15.974953
Ar    5.324966   15.974985   19.525209
Ar    5.324895   15.974990   23.074930
Ar    5.325090   15.975001   26.625002
Ar    5.324788   19.525192    1.774963
Ar    5.324783   19.525211    5.325020
Ar    5.325067   19.524960    8.875162
Ar    5.324878   19.525105   12.424935
Ar    5.324769   19.525119   15.975045
Ar    5.324862   19.525088   19.524961
Ar    5.325025   19.524771   23.075037
Ar    5.324962   19.524983   26.625018
Ar    5.325142   23.075225    1.775216
Ar    5.324925   23.075219    5.324983
Ar    5.324808   23.074927    8.874944
Ar    5.324831   23.075140   12.425074
Ar    5.324854   23.075008   15.974843
Ar    5.324861   23.074899   19.525110
Ar    5.324801   23.075164   23.074947
Ar    5.325065   23.074952   26.624902
Ar    5.324855   26.624944    1.775073
Ar    5.325180   26.624893    5.325059
Ar    5.325026   26.625045    8.874942
Ar    5.324903   26.625110   12.425152
Ar    5.324800   26.625112   15.974985
Ar    5.324836   26.625210   19.524942
Ar    5.324885   26.625179   23.075223
Ar    5.324923   26.624786   26.624850
Ar    8.874851    1.775018    1.775193
Ar    8.874770    1.775168    5.325004
Ar    8.875061    1.774981    8.875195
Ar    8.874874    1.774826   12.424798
Ar    8.874955    1.775022   15.974985
Ar    8.875123    1.774816   19.525024
Ar    8.875190    1.774927   23.074887
Ar    8.874893    1.774885   26.624815
Ar    8.874973    5.324807    1.775117
Ar    8.875173    5.325067    5.325031
Ar    8.875217    5.324872    8.874882
Ar    8.875141    5.324937   12.424993
Ar    8.875009    5.325118   15.974995
Ar    8.875029    5.325202   19.524907
Ar    8.874815    5.325132   23.075047
Ar    8.874764    5.324878   26.625234
Ar    8.875155    8.874787    1.774872
Ar    8.874883    8.874873    5.325105
Ar    8.875136    8.874820    8.874933
Ar    8.875119    8.875205   12.425111
Ar    8.875066    8.875087   15.975134
Ar    8.874916    8.874989   19.525119
Ar    8.875089    8.874916   23.075062
Ar    8.875063    8.874769   26.625089
Ar    8.875144   12.424908    1.775015
Ar    8.875113   12.424896    5.324988
Ar    8.874920   12.425143    8.875236
Ar    8.875196   12.424936   12.425145
Ar    8.875203   12.425010   15.975063
Ar    8.874804   12.425040   19.524863
Ar    8.874990   12.424807   23.075002
Ar    8.875126   12.425179   26.625154
Ar    8.875154   15.975155    1.774928
Ar    8.874785   15.975115    5.325168
Ar    8.875033   15.975053    8.874964
Ar    8.874956   15.975218   12.425115
Ar    8.874932   15.975053   15.974799
Ar    8.874956   15.974803   19.524938
Ar    8.875045   15.975176   23.074928
Ar    8.875154   15.975049   26.624897
Ar    8.874798   19.524984    1.774946
Ar    8.875018   19.525191    5.324983
Ar    8.875132   19.525095    8.875161
Ar    8.874943   19.524929   12.425105
Ar    8.874959   19.525056   15.975203
Ar    8.875067   19.524814   19.524984
Ar    8.874963   19.525106   23.075054
Ar    8.874786   19.525093   26.624955
Ar    8.875147   23.075138    1.775153
Ar    8.875012   23.074836    5.325091
Ar    8.874771   23.075119    8.874969
Ar    8.874788   23.075000   12.425236
Ar    8.874791   23.074990   15.974984
Ar    8.874988   23.075021   19.524889
Ar    8.875176   23.075063   23.075161
Ar    8.874804   23.074968   26.624846
Ar    8.874838   26.624777    1.774970
Ar    8.875080   26.624798    5.325018
Ar    8.874969   26.624957    8.874851
Ar    8.875128   26.625094   12.424782
Ar    8.874890   26.624963   15.974970
Ar    8.875089   26.624878   19.524855
Ar    8.874795   26.625033   23.075185
Ar    8.875054   26.624778   26.625161
Ar   12.424983    1.774903    1.775097
Ar   12.425004    1.774954    5.324785
Ar   12.425160    1.775033    8.875007
Ar   12.424932    1.775196   12.424985
Ar   12.425138    1.774870   15.974802
Ar   12.425036    1.775220   19.524796
Ar   12.424779    1.775115   23.074912
Ar   12.425166    1.775075   26.625070
Ar   12.424864    5.325043    1.774981
Ar   12.425096    5.325055    5.324931
Ar   12.425028    5.324918    8.874888
Ar   12.424942    5.324884   12.424798
Ar   12.425176    5.324941   15.974848
Ar   12.425079    5.324902   19.524982
Ar   12.425029    5.325165   23.074794
Ar   12.424869    5.324996   26.624862
Ar   12.425018    8.875118    1.775104
Ar   12.424880    8.875188    5.325209
Ar   12.425227    8.875221    8.875044
Ar   12.425075    8.875220   12.425140
Ar   12.424841    8.875170   15.975226
Ar   12.425191    8.875104   19.525198
Ar   12.424898    8.874776   23.075030
Ar   12.424882    8.874771   26.624897
Ar   12.424919   12.425079    1.774959
Ar   12.425012   12.424892    5.325192
Ar   12.424849   12.425211    8.874886
Ar   12.425046   12.424897   12.425150
Ar   12.424977   12.424972   15.975183
Ar   12.424867   12.425200   19.524787
Ar   12.425027   12.425199   23.075106
Ar   12.424913   12.424886   26.625030
Ar   12.425152   15.974917    1.774960
Ar   12.424954   15.974992    5.325037
Ar   12.424852   15.974834    8.874970
Ar   12.425184   15.975192   12.425020
Ar   12.425095   15.975222   15.974799
Ar   12.424876   15.975195   19.525030
Ar   12.425066   15.975136   23.074809
Ar   12.424862   15.974858   26.625033
Ar   12.425137   19.525080    1.774996
Ar   12.424906   19.525006    5.324953
Ar   12.424817   19.524837    8.875103
Ar   12.425222   19.524769   12.425144
Ar   12.425105   19.525005   15.975109
Ar   12.424902   19.524828   19.525149
Ar   12.425076   19.525186   23.074939
Ar   12.424889   19.525178   26.624845
Ar   12.425044   23.074784    1.774857
Ar   12.424814   23.074907    5.325002
Ar   12.424932   23.075097    8.875051
Ar   12.424975   23.074769   12.425189
Ar   12.424770   23.075130   15.975188
Ar   12.425217   23.074874   19.524914
Ar   12.425150   23.075095   23.075018
Ar   12.424778   23.075120   26.625157
Ar   12.424839   26.624995    1.774795
Ar   12.424991   26.624933    5.325220
Ar   12.424816   26.625139    8.874925
Ar   12.424840   26.625170   12.425188
Ar   12.424839   26.624949   15.975077
Ar   12.424980   26.624822   19.524888