512 
Step 0 , box:   28.400    28.400    28.400
Ar    1.775000    1.775000    1.775000
Ar    1.775000    1.775000    5.325000
Ar    1.775000    1.775000    8.875000
Ar    1.775000    1.775000   12.425000
Ar    1.775000    1.775000   15.975000
Ar    1.775000    1.775000   19.525000
Ar    1.775000    1.775000   23.075000
Ar    1.775000    1.775000   26.625000
Ar    1.775000    5.325000    1.775000
Ar    1.775000    5.325000    5.325000
Ar    1.775000    5.325000    8.875000
Ar    1.775000    5.325000   12.425000
Ar    1.775000    5.325000   15.975000
Ar    1.775000    5.325000   19.525000
Ar    1.775000    5.325000   23.075000
Ar    1.775000    5.325000   26.625000
Ar    1.775000    8.875000    1.775000
Ar    1.775000    8.875000    5.325000
Ar    1.775000    8.875000    8.875000
Ar    1.775000    8.875000   12.425000
Ar    1.775000    8.875000   15.975000
Ar    1.775000    8.875000   19.525000
Ar    1.775000    8.875000   23.075000
Ar    1.775000    8.875000   26.625000
Ar    1.775000   12.425000    1.775000
Ar    1.775000   12.425000    5.325000
Ar    1.775000   12.425000    8.875000
Ar    1.775000   12.425000   12.425000
Ar    1.775000   12.425000   15.975000
Ar    1.775000   12.425000   19.525000
Ar    1.775000   12.425000   23.075000
Ar    1.775000   12.425000   26.625000
Ar    1.775000   15.975000    1.775000
Ar    1.775000   15.975000    5.325000
Ar    1.775000   15.975000    8.875000
Ar    1.775000   15.975000   12.425000
Ar    1.775000   15.975000   15.975000
Ar    1.775000   15.975000   19.525000
Ar    1.775000   15.975000   23.075000
Ar    1.775000   15.975000   26.625000
Ar    1.775000   19.525000    1.775000
Ar    1.775000   19.525000    5.325000
Ar    1.775000   19.525000    8.875000
Ar    1.775000   19.525000   12.425000
Ar    1.775000   19.525000   15.975000
Ar    1.775000   19.525000   19.525000
Ar    1.775000   19.525000   23.075000
Ar    1.775000   19.525000   26.625000
Ar    1.775000   23.075000    1.775000
Ar    1.775000   23.075000    5.325000
Ar    1.775000   23.075000    8.875000
Ar    1.775000   23.075000   12.425000
Ar    1.775000   23.075000   15.975000
Ar    1.775000   23.075000   19.525000
Ar    1.775000   23.075000   23.075000
Ar    1.775000   23.075000   26.625000
Ar    1.775000   26.625000    1.775000
Ar    1.775000   26.625000    5.325000
Ar    1.775000   26.625000    8.875000
Ar    1.775000   26.625000   12.425000
Ar    1.775000   26.625000   15.975000
Ar    1.775000   26.625000   19.525000
Ar    1.775000   26.625000   23.075000
Ar    1.775000   26.625000   26.625000
Ar    5.325000    1.775000    1.775000
Ar    5.325000    1.775000    5.325000
Ar    5.325000    1.775000    8.875000
Ar    5.325000    1.775000   12.425000
Ar    5.325000    1.775000   15.975000
Ar    5.325000    1.775000   19.525000
Ar    5.325000    1.775000   23.075000
Ar    5.325000    1.775000   26.625000
Ar    5.325000    5.325000    1.775000
Ar    5.325000    5.325000    5.325000
Ar    5.325000    5.325000    8.875000
Ar    5.325000    5.325000   12.425000
Ar    5.325000    5.325000   15.975000
Ar    5.325000    5.325000   19.525000
Ar    5.325000    5.325000   23.075000
Ar    5.325000    5.325000   26.625000
Ar    5.325000    8.875000    1.775000
Ar    5.325000    8.875000    5.325000
Ar    5.325000    8.875000    8.875000
Ar    5.325000    8.875000   12.425000
Ar    5.325000    8.875000   15.975000
Ar    5.325000    8.875000   19.525000
Ar    5.325000    8.875000   23.075000
Ar    5.325000    8.875000   26.625000
Ar    5.325000   12.425000    1.775000
Ar    5.325000   12.425000    5.325000
Ar    5.325000   12.425000    8.875000
Ar    5.325000   12.425000   12.425000
Ar    5.325000   12.425000   15.975000
Ar    5.325000   12.425000   19.525000
Ar    5.325000   12.425000   23.075000
Ar    5.325000   12.425000   26.625000
Ar    5.325000   15.975000    1.775000
Ar    5.325000   15.975000    5.325000
Ar    5.325000   15.975000    8.875000
Ar    5.325000   15.975000   12.425000
Ar    5.325000   15.975000   15.975000
Ar    5.325000   15.975000   19.525000
Ar    5.325000   15.975000   23.075000
Ar    5.325000   15.975000   26.625000
Ar    5.325000   19.525000    1.775000
Ar    5.325000   19.525000    5.325000
Ar    5.325000   19.525000    8.875000
Ar    5.325000   19.525000   12.425000
Ar    5.325000   19.525000   15.975000
Ar    5.325000   19.525000   19.525000
Ar    5.325000   19.525000   23.075000
Ar    5.325000   19.525000   26.625000
Ar    5.325000   23.075000    1.775000
Ar    5.325000   23.075000    5.325000
Ar    5.325000   23.075000    8.875000
Ar    5.325000   23.075000   12.425000
Ar    5.325000   23.075000   15.975000
Ar    5.325000   23.075000   19.525000
Ar    5.325000   23.075000   23.075000
Ar    5.325000   23.075000   26.625000
Ar    5.325000   26.625000    1.775000
Ar    5.325000   26.625000    5.325000
Ar    5.325000   26.625000    8.875000
Ar    5.325000   26.625000   12.425000
Ar    5.325000   26.625000   15.975000
Ar    5.325000   26.625000   19.525000
Ar    5.325000   26.625000   23.075000
Ar    5.325000   26.625000   26.625000
Ar    8.875000    1.775000    1.775000
Ar    8.875000    1.775000    5.325000
Ar    8.875000    1.775000    8.875000
Ar    8.875000    1.775000   12.425000
Ar    8.875000    1.775000   15.975000
Ar    8.875000    1.775000   19.525000
Ar    8.875000    1.775000   23.075000
Ar    8.875000    1.775000   26.625000
Ar    8.875000    5.325000    1.775000
Ar    8.875000    5.325000    5.325000
Ar    8.875000    5.325000    8.875000
Ar    8.875000    5.325000   12.425000
Ar    8.875000    5.325000   15.975000
Ar    8.875000    5.325000   19.525000
Ar    8.875000    5.325000   23.075000
Ar    8.875000    5.325000   26.625000
Ar    8.875000    8.875000    1.775000
Ar    8.875000    8.875000    5.325000
Ar    8.875000    8.875000    8.875000
Ar    8.875000    8.875000   12.425000
Ar    8.875000    8.875000   15.975000
Ar    8.875000    8.875000   19.525000
Ar    8.875000    8.875000   23.075000
Ar    8.875000    8.875000   26.625000
Ar    8.875000   12.425000    1.775000
Ar    8.875000   12.425000    5.325000
Ar    8.875000   12.425000    8.875000
Ar    8.875000   12.425000   12.425000
Ar    8.875000   12.425000   15.975000
Ar    8.875000   12.425000   19.525000
Ar    8.875000   12.425000   23.075000
Ar    8.875000   12.425000   26.625000
Ar    8.875000   15.975000    1.775000
Ar    8.875000   15.975000    5.325000
Ar    8.875000   15.975000    8.875000
Ar    8.875000   15.975000   12.425000
Ar    8.875000   15.975000   15.975000
Ar    8.875000   15.975000   19.525000
Ar    8.875000   15.975000   23.075000
Ar    8.875000   15.975000   26.625000
Ar    8.875000   19.525000    1.775000
Ar    8.875000   19.525000    5.325000
Ar    8.875000   19.525000    8.875000
Ar    8.875000   19.525000   12.425000
Ar    8.875000   19.525000   15.975000
Ar    8.875000   19.525000   19.525000
Ar    8.875000   19.525000   23.075000
Ar    8.875000   19.525000   26.625000
Ar    8.875000   23.075000    1.775000
Ar    8.875000   23.075000    5.325000
Ar    8.875000   23.075000    8.875000
Ar    8.875000   23.075000   12.425000
Ar    8.875000   23.075000   15.975000
Ar    8.875000   23.075000   19.525000
Ar    8.875000   23.075000   23.075000
Ar    8.875000   23.075000   26.625000
Ar    8.875000   26.625000    1.775000
Ar    8.875000   26.625000    5.325000
Ar    8.875000   26.625000    8.875000
Ar    8.875000   26.625000   12.425000
Ar    8.875000   26.625000   15.975000
Ar    8.875000   26.625000   19.525000
Ar    8.875000   26.625000   23.075000
Ar    8.875000   26.625000   26.625000
Ar   12.425000    1.775000    1.775000
Ar   12.425000    1.775000    5.325000
Ar   12.425000    1.775000    8.875000
Ar   12.425000    1.775000   12.425000
Ar   12.425000    1.775000   15.975000
Ar   12.425000    1.775000   19.525000
Ar   12.425000    1.775000   23.075000
Ar   12.425000    1.775000   26.625000
Ar   12.425000    5.325000    1.775000
Ar   12.425000    5.325000    5.325000
Ar   12.425000    5.325000    8.875000
Ar   12.425000    5.325000   12.425000
Ar   12.425000    5.325000   15.975000
Ar   12.425000    5.325000   19.525000
Ar   12.425000    5.325000   23.075000
Ar   12.425000    5.325000   26.625000
Ar   12.425000    8.875000    1.775000
Ar   12.425000    8.875000    5.325000
Ar   12.425000    8.875000    8.875000
Ar   12.425000    8.875000   12.425000
Ar   12.425000    8.875000   15.975000
Ar   12.425000    8.875000   19.525000
Ar   12.425000    8.875000   23.075000
Ar   12.425000    8.875000   26.625000
Ar   12.425000   12.425000    1.775000
Ar   12.425000   12.425000    5.325000
Ar   12.425000   12.425000    8.875000
Ar   12.425000   12.425000   12.425000
Ar   12.425000   12.425000   15.975000
Ar   12.425000   12.425000   19.525000
Ar   12.425000   12.425000   23.075000
Ar   12.425000   12.425000   26.625000
Ar   12.425000   15.975000    1.775000
Ar   12.425000   15.975000    5.325000
Ar   12.425000   15.975000    8.875000
Ar   12.425000   15.975000   12.425000
Ar   12.425000   15.975000   15.975000
Ar   12.425000   15.975000   19.525000
Ar   12.425000   15.975000   23.075000
Ar   12.425000   15.975000   26.625000
Ar   12.425000   19.525000    1.775000
Ar   12.425000   19.525000    5.325000
Ar   12.425000   19.525000    8.875000
Ar   12.425000   19.525000   12.425000
Ar   12.425000   19.525000   15.975000
Ar   12.425000   19.525000   19.525000
Ar   12.425000   19.525000   23.075000
Ar   12.425000   19.525000   26.625000
Ar   12.425000   23.075000    1.775000
Ar   12.425000   23.075000    5.325000
Ar   12.425000   23.075000    8.875000
Ar   12.425000   23.075000   12.425000
Ar   12.425000   23.075000   15.975000
Ar   12.425000   23.075000   19.525000
Ar   12.425000   23.075000   23.075000
Ar   12.425000   23.075000   26.625000
Ar   12.425000   26.625000    1.775000
Ar   12.425000   26.625000    5.325000
Ar   12.425000   26.625000    8.875000
Ar   12.425000   26.625000   12.425000
Ar   12.425000   26.625000   15.975000
Ar   12.425000   26.625000   19.525000
Ar   12.425000   26.625000   23.075000
Ar   12.425000   26.625000   26.625000
Ar   15.975000    1.775000    1.775000
Ar   15.975000    1.775000    5.325000
Ar   15.975000    1.775000    8.875000
Ar   15.975000    1.775000   12.425000
Ar   15.975000    1.775000   15.975000
Ar   15.975000    1.775000   19.525000
Ar   15.975000    1.775000   23.075000
Ar   15.975000    1.775000   26.625000
Ar   15.975000    5.325000    1.775000
Ar   15.975000    5.325000    5.325000
Ar   15.975000    5.325000    8.875000
Ar   15.975000    5.325000   12.425000
Ar   15.975000    5.325000   15.975000
Ar   15.975000    5.325000   19.525000
Ar   15.975000    5.325000   23.075000
Ar   15.975000    5.325000   26.625000
Ar   15.975000    8.875000    1.775000
Ar   15.975000    8.875000    5.325000
Ar   15.975000    8.875000    8.875000
Ar   15.975000    8.875000   12.425000
Ar   15.975000    8.875000   15.975000
Ar   15.975000    8.875000   19.525000
Ar   15.975000    8.875000   23.075000
Ar   15.975000    8.875000   26.625000
Ar   15.975000   12.425000    1.775000
Ar   15.975000   12.425000    5.325000
Ar   15.975000   12.425000    8.875000
Ar   15.975000   12.425000   12.425000
Ar   15.975000   12.425000   15.975000
Ar   15.975000   12.425000   19.525000
Ar   15.975000   12.425000   23.075000
Ar   15.975000   12.425000   26.625000
Ar   15.975000   15.975000    1.775000
Ar   15.975000   15.975000    5.325000
Ar   15.975000   15.975000    8.875000
Ar   15.975000   15.975000   12.425000
Ar   15.975000   15.975000   15.975000
Ar   15.975000   15.975000   19.525000
Ar   15.975000   15.975000   23.075000
Ar   15.975000   15.975000   26.625000
Ar   15.975000   19.525000    1.775000
Ar   15.975000   19.525000    5.325000
Ar   15.975000   19.525000    8.875000
Ar   15.975000   19.525000   12.425000
Ar   15.975000   19.525000   15.975000
Ar   15.975000   19.525000   19.525000
Ar   15.975000   19.525000   23.075000
Ar   15.975000   19.525000   26.625000
Ar   15.975000   23.075000    1.775000
Ar   15.975000   23.075000    5.325000
Ar   15.975000   23.075000    8.875000
Ar   15.975000   23.075000   12.425000
Ar   15.975000   23.075000   15.975000
Ar   15.975000   23.075000   19.525000
Ar   15.975000   23.075000   23.075000
Ar   15.975000   23.075000   26.625000
Ar   15.975000   26.625000    1.775000
Ar   15.975000   26.625000    5.325000
Ar   15.975000   26.625000    8.875000
Ar   15.975000   26.625000   12.425000
Ar   15.975000   26.625000   15.975000
Ar   15.975000   26.625000   19.525000
Ar   15.975000   26.625000   23.075000
Ar   15.975000   26.625000   26.625000
Ar   19.525000    1.775000    1.775000
Ar   19.525000    1.775000    5.325000
Ar   19.525000    1.775000    8.875000
Ar   19.525000    1.775000   12.425000
Ar   19.525000    1.775000   15.975000
Ar   19.525000    1.775000   19.525000
Ar   19.525000    1.775000   23.075000
Ar   19.525000    1.775000   26.625000
Ar   19.525000    5.325000    1.775000
Ar   19.525000    5.325000    5.325000
Ar   19.525000    5.325000    8.875000
Ar   19.525000    5.325000   12.425000
Ar   19.525000    5.325000   15.975000
Ar   19.525000    5.325000   19.525000
Ar   19.525000    5.325000   23.075000
Ar   19.525000    5.325000   26.625000
Ar   19.525000    8.875000    1.775000
Ar   19.525000    8.875000    5.325000
Ar   19.525000    8.875000    8.875000
Ar   19.525000    8.875000   12.425000
Ar   19.525000    8.875000   15.975000
Ar   19.525000    8.875000   19.525000
Ar   19.525000    8.875000   23.075000
Ar   19.525000    8.875000   26.625000
Ar   19.525000   12.425000    1.775000
Ar   19.525000   12.425000    5.325000
Ar   19.525000   12.425000    8.875000
Ar   19.525000   12.425000   12.425000
Ar   19.525000   12.425000   15.975000
Ar   19.525000   12.425000   19.525000
Ar   19.525000   12.425000   23.075000
Ar   19.525000   12.425000   26.625000
Ar   19.525000   15.975000    1.775000
Ar   19.525000   15.975000    5.325000
Ar   19.525000   15.975000    8.875000
Ar   19.525000   15.975000   12.425000
Ar   19.525000   15.975000   15.975000
Ar   19.525000   15.975000   19.525000
Ar   19.525000   15.975000   23.075000
Ar   19.525000   15.975000   26.625000
Ar   19.525000   19.525000    1.775000
Ar   19.525000   19.525000    5.325000
Ar   19.525000   19.525000    8.875000
Ar   19.525000   19.525000   12.425000
Ar   19.525000   19.525000   15.975000
Ar   19.525000   19.525000   19.525000
Ar   19.525000   19.525000   23.075000
Ar   19.525000   19.525000   26.625000
Ar   19.525000   23.075000    1.775000
Ar   19.525000   23.075000    5.325000
Ar   19.525000   23.075000    8.875000
Ar   19.525000   23.075000   12.425000
Ar   19.525000   23.075000   15.975000
Ar   19.525000   23.075000   19.525000
Ar   19.525000   23.075000   23.075000
Ar   19.525000   23.075000   26.625000
Ar   19.525000   26.625000    1.775000
Ar   19.525000   26.625000    5.325000
Ar   19.525000   26.625000    8.875000
Ar   19.525000   26.625000   12.425000
Ar   19.525000   26.625000   15.975000
Ar   19.525000   26.625000   19.525000
Ar   19.525000   26.625000   23.075000
Ar   19.525000   26.625000   26.625000
Ar   23.075000    1.775000    1.775000
Ar   23.075000    1.775000    5.325000
Ar   23.075000    1.775000    8.875000
Ar   23.075000    1.775000   12.425000
Ar   23.075000    1.775000   15.975000
Ar   23.075000    1.775000   19.525000
Ar   23.075000    1.775000   23.075000
Ar   23.075000    1.775000   26.625000
Ar   23.075000    5.325000    1.775000
Ar   23.075000    5.325000    5.325000
Ar   23.075000    5.325000    8.875000
Ar   23.075000    5.325000   12.425000
Ar   23.075000    5.325000   15.975000
Ar   23.075000    5.325000   19.525000
Ar   23.075000    5.325000   23.075000
Ar   23.075000    5.325000   26.625000
Ar   23.075000    8.875000    1.775000
Ar   23.075000    8.875000    5.325000
Ar   23.075000    8.875000    8.875000
Ar   23.075000    8.875000   12.425000
Ar   23.075000    8.875000   15.975000
Ar   23.075000    8.875000   19.525000
Ar   23.075000    8.875000   23.075000
Ar   23.075000    8.875000   26.625000
Ar   23.075000   12.425000    1.775000
Ar   23.075000   12.425000    5.325000
Ar   23.075000   12.425000    8.875000
Ar   23.075000   12.425000   12.425000
Ar   23.075000   12.425000   15.975000
Ar   23.075000   12.425000   19.525000
Ar   23.075000   12.425000   23.075000
Ar   23.075000   12.425000   26.625000
Ar   23.075000   15.975000    1.775000
Ar   23.075000   15.975000    5.325000
Ar   23.075000   15.975000    8.875000
Ar   23.075000   15.975000   12.425000
Ar   23.075000   15.975000   15.975000
Ar   23.075000   15.975000   19.525000
Ar   23.075000   15.975000   23.075000
Ar   23.075000   15.975000   26.625000
Ar   23.075000   19.525000    1.775000
Ar   23.075000   19.525000    5.325000
Ar   23.075000   19.525000    8.875000
Ar   23.075000   19.525000   12.425000
Ar   23.075000   19.525000   15.975000
Ar   23.075000   19.525000   19.525000
Ar   23.075000   19.525000   23.075000
Ar   23.075000   19.525000   26.625000
Ar   23.075000   23.075000    1.775000
Ar   23.075000   23.075000    5.325000
Ar   23.075000   23.075000    8.875000
Ar   23.075000   23.075000   12.425000
Ar   23.075000   23.075000   15.975000
Ar   23.075000   23.075000   19.525000
Ar   23.075000   23.075000   23.075000
Ar   23.075000   23.075000   26.625000
Ar   23.075000   26.625000    1.775000
Ar   23.075000   26.625000    5.325000
Ar   23.075000   26.625000    8.875000
Ar   23.075000   26.625000   12.425000
Ar   23.075000   26.625000   15.975000
Ar   23.075000   26.625000   19.525000
Ar   23.075000   26.625000   23.075000
Ar   23.075000   26.625000   26.625000
Ar   26.625000    1.775000    1.775000
Ar   26.625000    1.775000    5.325000
Ar   26.625000    1.775000    8.875000
Ar   26.625000    1.775000   12.425000
Ar   26.625000    1.775000   15.975000
Ar   26.625000    1.775000   19.525000
Ar   26.625000    1.775000   23.075000
Ar   26.625000    1.775000   26.625000
Ar   26.625000    5.325000    1.775000
Ar   26.625000    5.325000    5.325000
Ar   26.625000    5.325000    8.875000
Ar   26.625000    5.325000   12.425000
Ar   26.625000    5.325000   15.975000
Ar   26.625000    5.325000   19.525000
Ar   26.625000    5.325000   23.075000
Ar   26.625000    5.325000   26.625000
Ar   26.625000    8.875000    1.775000
Ar   26.625000    8.875000    5.325000
Ar   26.625000    8.875000    8.875000
Ar   26.625000    8.875000   12.425000
Ar   26.625000    8.875000   15.975000
Ar   26.625000    8.875000   19.525000
Ar   26.625000    8.875000   23.075000
Ar   26.625000    8.875000   26.625000
Ar   26.625000   12.425000    1.775000
Ar   26.625000   12.425000    5.325000
Ar   26.625000   12.425000    8.875000
Ar   26.625000   12.425000   12.425000
Ar   26.625000   12.425000   15.975000
Ar   26.625000   12.425000   19.525000
Ar   26.625000   12.425000   23.075000
Ar   26.625000   12.425000   26.625000
Ar   26.625000   15.975000    1.775000
Ar   26.625000   15.975000    5.325000
Ar   26.625000   15.975000    8.875000
Ar   26.625000   15.975000   12.425000
Ar   26.625000   15.975000   15.975000
Ar   26.625000   15.975000   19.525000
Ar   26.625000   15.975000   23.075000
Ar   26.625000   15.975000   26.625000
Ar   26.625000   19.525000    1.775000
Ar   26.625000   19.525000    5.325000
Ar   26.625000   19.525000    8.875000
Ar   26.625000   19.525000   12.425000
Ar   26.625000   19.525000   15.975000
Ar   26.625000   19.525000   19.525000
Ar   26.625000   19.525000   23.075000
Ar   26.625000   19.525000   26.625000
Ar   26.625000   23.075000    1.775000
Ar   26.625000   23.075000    5.325000
Ar   26.625000   23.075000    8.875000
Ar   26.625000   23.075000   12.425000
Ar   26.625000   23.075000   15.975000
Ar   26.625000   23.075000   19.525000
Ar   26.625000   23.075000   23.075000
Ar   26.625000   23.075000   26.625000
Ar   26.625000   26.625000    1.775000
Ar   26.625000   26.625000    5.325000
Ar   26.625000   26.625000    8.875000
Ar   26.625000   26.625000   12.425000
Ar   26.625000   26.625000   15.975000
Ar   26.625000   26.625000   19.525000
Ar   26.625000   26.625000   23.075000
Ar   26.625000   26.625000   26.625000
512 
Step 100 , box:   28.400    28.400    28.400
Ar-9379.794788-6384.113949 9755.281600
Ar   11.17972215346.989522-41219.914581
Ar34282868.476362-936635.806063-38470456.895002
Ar-34279808.287796937276.01614138466428.492385
Ar-228046.195626-158346.874314-58991.078038
Ar299475.253439175679.488839-176415.266924
Ar11777.740392-34863.416520-21289.113949
Ar-1226157.343602-789923.501042272535.766293
Ar97577678.267783-72665440.356590-52573833.578434
Ar10347.962569-5223.467992 4578.126594
Ar79846.866418-304689.492143161864.132496
Ar-11585.079643 6842.995223   18.262049
Ar61537.429782 3128.371212-159889.168309
Ar-95167.530024202495.132965-345025.993383
Ar24687.99165682676.032753158569.638083
Ar-2309987.398062-2754583.961122217002.137011
Ar-189143.221906-83408.895476-39324.126628
Ar-147451518.0583221070513697.318795277502009.847208
Ar372565.510498-163501.929844449257.327527
Ar1340806.109238-568278.904185626862.473275
Ar7002557.9707833583378.8070306420468.385016
Ar-841479466.921889635805048.12572236326889.233428
Ar-10499.401594-23843.39205991643.789264
Ar 8236.932071-10915.939965 2894.721467
Ar-179482.169788248070.978543-410277.846666
Ar-8858.308149-24873.39767412493.478166
Ar160888.132988-147038.770355-246738.901350
Ar-162427.782889146079.064372247066.507744
Ar3043505.2269551066847.898196169377.297822
Ar-893535.618488901770.624931-594280.015829
Ar 7874.368108  284.165534 2563.276659
Ar-512530.896297853270.555641191700.721265
Ar-6268130205.188188-1968838736.931072-7049291914.807829
Ar1285561.9053952277202.358044-262343.064007
Ar-156776.95263122218.43088514640.834255
Ar169525.115085 8648.885434-196129.082554
Ar-10592629.382111151154642.693951120417259.095761
Ar236134450591922.59375011018982445085.806641-146105623521875.750000
Ar2314456.4847282756524.410459-218424.929815
Ar16327.416798-2488.442709-2668.699890
Ar21745541163.100391-1832355410.83731723760015749.176758
Ar-17111191592.766827-21769137953.3702284816306238.718598
Ar457231.789766-238506.532345-187706.606557
Ar  784.978075   13.20272113572.694643
Ar 2000.61270210233.809862-2950.149136
Ar3572035.00513213837019.92525012395519.361528
Ar-3566025.129369-13838722.512789-12402418.505436
Ar-21745533855.4168361832355253.585727-23760012754.261703
Ar-5627.61254632851.282137180527.368286
Ar-3745.243429 7416.905520-27280.185435
Ar71873.555304-56531.443996-190229.154727
Ar183447.353329-207790.078360-43939.280921
Ar264990.389308-428360.889205186527.685414
Ar-11351.094105-17445.56965363718.481915
Ar134430.021799-211093.592139-343289.458775
Ar-6994027.301006-3618803.647248-6603107.524554
Ar-66214.897564-107246.574696-48318.318237
Ar889844.633812-885447.242381600078.076034
Ar-237020578.114565-21701856.644841-126191571.143615
Ar-4850418834.3491084728115370.467636-1512385297.390361
Ar-24624.751891-13940.803017-68288.107133
Ar-301547.253366-176638.710773171342.548206
Ar371539.015469-293266.410507429337.415303
Ar358405.479981-2716034.080141626311.326590
Ar-16587.87814664229.016172-74903.694255
Ar-5551227.7557583768729.144029-3549960.675079
Ar-87007029.038657167873502.291135-187385958.266322
Ar-23790.346040-82988.206492-159504.104251
Ar-5118604.4115544208970.1536371818886.792948
Ar-232047.055953108805.223884326824.707067
Ar-38850969.566144-84692410.32494034992664.774312
Ar38845037.91580984694897.256653-34986505.928441
Ar-453225.640056124490.761070462695.919922
Ar-10932.852860-43668.71619913865.951738
Ar-761601.783679-33341.790870-71976.519350
Ar474913391.418734558474618.273219-1409330302.093369
Ar230285.443922158957.73161459314.472343
Ar-61051.302578-117499.730943246725.392147
Ar   10.751839-1145.491935   23.879847
Ar1227571.379989792464.020462-270441.222049
Ar37452205.850176-55643617.518800-11405065.658698
Ar 2167.189984 -708.191292   12.797742
Ar-894629.736288-1048766.139269-365337.062335
Ar61230.670338-65856.543691-3499.471965
Ar-280556.657626-21735.250072259815.998455
Ar   12.523427-2877.700123 -433.594543
Ar165628.873027-67452.905240-194449.210095
Ar-192545.929463-29181.689284-133384.184147
Ar16347474124.527260-71833786675.96073931032553604.694839
Ar  552.695150 -283.013497   17.438428
Ar-1988290.339952-2726658.810348338871.941288
Ar-4436.519008 5135.143459-99109.216085
Ar6858616.716082-3517414.966500177022469.239551
Ar-180555343.926371417852447.091955-1183325525.293812
Ar180549143.146699-417847895.5371751183319120.192945
Ar3110992.121921-9717939.7154192603129.746526
Ar127139.309138-229173.092095-324136.519181
Ar-14752575.106015-13401793.07778112447333.758168
Ar-37258.934766-12456.48356729856.121824
Ar-2895.518478180642.941679-11337.736042
Ar-371459618006487.125000-278380519651057.781250-211634290314576.343750
Ar371459618008082.937500278380519650085.593750211634290310513.781250
Ar17111191558.71711521769139557.036015-4816302543.983362
Ar194578.39362113306.387182128280.399043
Ar-19733.086138-12068.23980328630.451974
Ar-236134450577027.031250-11018982430576.978516146105623497379.187500
Ar  212.87744525484.530265-26090.335976
Ar-210991.218122128662.963993-175292.153930
Ar1296891.523971-526426.284072-26704.808374
Ar779986.082693-7315709.9729279055247.645740
Ar-10508.249843-17194.709485-3355.487706
Ar27470.815398133298.769100166011.135431
Ar31645.880585-14479.148638-15711.029042
Ar   23.467575   11.753308   19.457358
Ar25570935.174712-8296523.795543-20039188.552980
Ar-71990.94092263538.311383200311.280200
Ar937519.54659796954.407927-603322.258956
Ar-734857.2505871423857.799459658250.198292
Ar-7778400.9565331239066.64790115255374.600197
Ar-162262.713372-194122.562826-316535.750075
Ar-1145729.090242150719.514439-470581.670797
Ar147891249.156070-1070627720.725187-277972966.893847
Ar144415923.12069378709263.138295-58459454.198874
Ar-1666414.434610-882814.222543-2937091.193629
Ar  223.209743 4225.46087514492.354750
Ar-267132.178731-663130.404407137845.095498
Ar-16307.098092 -651.357261 1099.222095
Ar68899.472255-25976.930746-93130.525394
Ar42431.14452369912.418082-82621.827103
Ar469890.7267071925562.432201-494424.992847
Ar37815.757770-46735.893327-37111.550063
Ar42683125.31423170500650.908864836469.249231
Ar-242958406848013.125000-162359837904368.062500-142549646201724.718750
Ar5629395.883932-3653366.412083-2290772.011221
Ar-287540.929923-80162.667565411619.845440
Ar1003097.5248141111636.578058394611.560711
Ar3266517.689986-266285.631754-145518.242369
Ar2424403.5405339944636.3446301521296.313099
Ar122755.226436-33759.537610166387.576127
Ar-556293750.516686864331540.279126-140445351.189824
Ar-140234.790240227028.595418145308.889121
Ar-852373.1949806682021.215596-9872775.207935
Ar116480.902971 4655.944749-58787.472307
Ar6371318.8182952907611.175505-1346380.345918
Ar-131069.446247253438.340830163151.403947
Ar-125343.08950536019.232864-174769.255193
Ar1186653.852238-6772796.1241355262073.279393
Ar18609.201378  -65.843554 9407.705616
Ar399528.462059-1455366.030193-712884.483856
Ar-397971840769065664.000000-135955120422085760.000000130110590073223760.000000
Ar-335574.485991-237913.97955579575.666930
Ar444367.252384321107.146487219186.567484
Ar-16347467536.26773171833791643.899643-31032555586.003159
Ar 1413.367071-10827.381101-8523.742781
Ar-125908.842262227489.412170323945.389366
Ar732809.628363125222.58653660775.554436
Ar-8955.37154150695.618288196319.816876
Ar-18321.70036347475.509383  164.565983
Ar-2267.216053 -140.190109-4542.465886
Ar -161.676859 3670.577052 6047.378461
Ar-339791.491916-327019.227868886614.258920
Ar10428.39281410753.162160-3978.160561
Ar   15.466207-11975.632054-4084.551437
Ar-80727.483814-105387.528730-67563.444653
Ar-447671.5788951413787.5401671203947.172293
Ar692486.325569-1100089.994316-197343.239912
Ar101434.180955259792.339081-123841.291938
Ar16356.787830-27423.079508-48703.447923
Ar5731825.979018-4435231.199429-2113964.528015
Ar-1826292.777623-2160534.0180591128799.713237
Ar178214.43278670823.10223282091.542009
Ar14751758.42234513398088.883396-12475006.583117
Ar-46419.585727116997.373320-100200.455643
Ar-4425.811355-6397.716574 1120.975144
Ar-239906608.17216071461814.832277-33598360.254683
Ar-37100726.36246155987862.41005110515686.427330
Ar-48372.92807435487.276332-37390.660598
Ar6325262911.1567851869682806.0742537015476554.409826
Ar-144344493.755043-78761216.10479558479696.621548
Ar981593.931041-2135660.346005-3092780.627247
Ar   15.770822  238.959338 2860.690805
Ar49446.60449538321.46628645702.266618
Ar-3051221.9672579694049.473887-2609792.585831
Ar-949603116.744094248459667.6118581337774279.959116
Ar96157.677234143303.448383-81656.183458
Ar672021.493313-2079213.261078967275.381392
Ar-475190503.267319-558662552.9283811409414979.966741
Ar2657937.4453642160828.268719-1101839.117537
Ar26387.13783819881.586018 5006.559666
Ar2965551.2278201528311.5896941065045.779510
Ar-123662.01732840714.47144817477.873105
Ar-61466.23196363044.828700153140.503176
Ar1402642.176068-215546.8265494375831.517845
Ar-92428.272739-256151.606213157686.952768
Ar156399.988940259346.215279-98893.413895
Ar-55577.84835860799.940908-35656.047008
Ar   10.608078  327.914458    0.371494
Ar459732.122769-1394576.912803-1197545.941891
Ar-10200497939.152725-3236888441.161073-5218577485.677746
Ar1631383.901665-463809.492112-2373976.439833
Ar-3260202.803767250178.867857145481.649690
Ar134148.651718-257408.025473-158391.674698
Ar-2585.107556-13669.421065-39611.249791
Ar-1297496.007800527698.57808328274.625640
Ar-19149.883831-12250.63135919478.294222
Ar-23267.28599459460.055217-86982.375034
Ar-1623562.863669389314.5898862444807.213668
Ar-211036.587541194216.741624214561.402936
Ar494773.374787-737406.987035-260331.452752
Ar1539009.187256-888478.026386-6353729.865245
Ar 9161.149577-15437.63549311768.700184
Ar-7359.10544620225.839081   21.792642
Ar 3476.13418017142.939515  686.359178
Ar332407.110868236267.985712-77133.569785
Ar15199.947344-4473.94381224417.942430
Ar-4361451322.239652-23587420180.292488-7497912851.584831
Ar90361.203758191696.734090143956.979997
Ar5863248.628154-23095540.52697017169828.435378
Ar36304.02062026401.10596963036.243030
Ar  559.649592-73131.33701911899.855900