512 
Step 0 , box:   28.400    28.400    28.400
Ar    1.775000    1.775000    1.775000
Ar    1.775000    1.775000    5.325000
Ar    1.775000    1.775000    8.875000
Ar    1.775000    1.775000   12.425000
Ar    1.775000    1.775000   15.975000
Ar    1.775000    1.775000   19.525000
Ar    1.775000    1.775000   23.075000
Ar    1.775000    1.775000   26.625000
Ar    1.775000    5.325000    1.775000
Ar    1.775000    5.325000    5.325000
Ar    1.775000    5.325000    8.875000
Ar    1.775000    5.325000   12.425000
Ar    1.775000    5.325000   15.975000
Ar    1.775000    5.325000   19.525000
Ar    1.775000    5.325000   23.075000
Ar    1.775000    5.325000   26.625000
Ar    1.775000    8.875000    1.775000
Ar    1.775000    8.875000    5.325000
Ar    1.775000    8.875000    8.875000
Ar    1.775000    8.875000   12.425000
Ar    1.775000    8.875000   15.975000
Ar    1.775000    8.875000   19.525000
Ar    1.775000    8.875000   23.075000
Ar    1.775000    8.875000   26.625000
Ar    1.775000   12.425000    1.775000
Ar    1.775000   12.425000    5.325000
Ar    1.775000   12.425000    8.875000
Ar    1.775000   12.425000   12.425000
Ar    1.775000   12.425000   15.975000
Ar    1.775000   12.425000   19.525000
Ar    1.775000   12.425000   23.075000
Ar    1.775000   12.425000   26.625000
Ar    1.775000   15.975000    1.775000
Ar    1.775000   15.975000    5.325000
Ar    1.775000   15.975000    8.875000
Ar    1.775000   15.975000   12.425000
Ar    1.775000   15.975000   15.975000
Ar    1.775000   15.975000   19.525000
Ar    1.775000   15.975000   23.075000
Ar    1.775000   15.975000   26.625000
Ar    1.775000   19.525000    1.775000
Ar    1.775000   19.525000    5.325000
Ar    1.775000   19.525000    8.875000
Ar    1.775000   19.525000   12.425000
Ar    1.775000   19.525000   15.975000
Ar    1.775000   19.525000   19.525000
Ar    1.775000   19.525000   23.075000
Ar    1.775000   19.525000   26.625000
Ar    1.775000   23.075000    1.775000
Ar    1.775000   23.075000    5.325000
Ar    1.775000   23.075000    8.875000
Ar    1.775000   23.075000   12.425000
Ar    1.775000   23.075000   15.975000
Ar    1.775000   23.075000   19.525000
Ar    1.775000   23.075000   23.075000
Ar    1.775000   23.075000   26.625000
Ar    1.775000   26.625000    1.775000
Ar    1.775000   26.625000    5.325000
Ar    1.775000   26.625000    8.875000
Ar    1.775000   26.625000   12.425000
Ar    1.775000   26.625000   15.975000
Ar    1.775000   26.625000   19.525000
Ar    1.775000   26.625000   23.075000
Ar    1.775000   26.625000   26.625000
Ar    5.325000    1.775000    1.775000
Ar    5.325000    1.775000    5.325000
Ar    5.325000    1.775000    8.875000
Ar    5.325000    1.775000   12.425000
Ar    5.325000    1.775000   15.975000
Ar    5.325000    1.775000   19.525000
Ar    5.325000    1.775000   23.075000
Ar    5.325000    1.775000   26.625000
Ar    5.325000    5.325000    1.775000
Ar    5.325000    5.325000    5.325000
Ar    5.325000    5.325000    8.875000
Ar    5.325000    5.325000   12.425000
Ar    5.325000    5.325000   15.975000
Ar    5.325000    5.325000   19.525000
Ar    5.325000    5.325000   23.075000
Ar    5.325000    5.325000   26.625000
Ar    5.325000    8.875000    1.775000
Ar    5.325000    8.875000    5.325000
Ar    5.325000    8.875000    8.875000
Ar    5.325000    8.875000   12.425000
Ar    5.325000    8.875000   15.975000
Ar    5.325000    8.875000   19.525000
Ar    5.325000    8.875000   23.075000
Ar    5.325000    8.875000   26.625000
Ar    5.325000   12.425000    1.775000
Ar    5.325000   12.425000    5.325000
Ar    5.325000   12.425000    8.875000
Ar    5.325000   12.425000   12.425000
Ar    5.325000   12.425000   15.975000
Ar    5.325000   12.425000   19.525000
Ar    5.325000   12.425000   23.075000
Ar    5.325000   12.425000   26.625000
Ar    5.325000   15.975000    1.775000
Ar    5.325000   15.975000    5.325000
Ar    5.325000   15.975000    8.875000
Ar    5.325000   15.975000   12.425000
Ar    5.325000   15.975000   15.975000
Ar    5.325000   15.975000   19.525000
Ar    5.325000   15.975000   23.075000
Ar    5.325000   15.975000   26.625000
Ar    5.325000   19.525000    1.775000
Ar    5.325000   19.525000    5.325000
Ar    5.325000   19.525000    8.875000
Ar    5.325000   19.525000   12.425000
Ar    5.325000   19.525000   15.975000
Ar    5.325000   19.525000   19.525000
Ar    5.325000   19.525000   23.075000
Ar    5.325000   19.525000   26.625000
Ar    5.325000   23.075000    1.775000
Ar    5.325000   23.075000    5.325000
Ar    5.325000   23.075000    8.875000
Ar    5.325000   23.075000   12.425000
Ar    5.325000   23.075000   15.975000
Ar    5.325000   23.075000   19.525000
Ar    5.325000   23.075000   23.075000
Ar    5.325000   23.075000   26.625000
Ar    5.325000   26.625000    1.775000
Ar    5.325000   26.625000    5.325000
Ar    5.325000   26.625000    8.875000
Ar    5.325000   26.625000   12.425000
Ar    5.325000   26.625000   15.975000
Ar    5.325000   26.625000   19.525000
Ar    5.325000   26.625000   23.075000
Ar    5.325000   26.625000   26.625000
Ar    8.875000    1.775000    1.775000
Ar    8.875000    1.775000    5.325000
Ar    8.875000    1.775000    8.875000
Ar    8.875000    1.775000   12.425000
Ar    8.875000    1.775000   15.975000
Ar    8.875000    1.775000   19.525000
Ar    8.875000    1.775000   23.075000
Ar    8.875000    1.775000   26.625000
Ar    8.875000    5.325000    1.775000
Ar    8.875000    5.325000    5.325000
Ar    8.875000    5.325000    8.875000
Ar    8.875000    5.325000   12.425000
Ar    8.875000    5.325000   15.975000
Ar    8.875000    5.325000   19.525000
Ar    8.875000    5.325000   23.075000
Ar    8.875000    5.325000   26.625000
Ar    8.875000    8.875000    1.775000
Ar    8.875000    8.875000    5.325000
Ar    8.875000    8.875000    8.875000
Ar    8.875000    8.875000   12.425000
Ar    8.875000    8.875000   15.975000
Ar    8.875000    8.875000   19.525000
Ar    8.875000    8.875000   23.075000
Ar    8.875000    8.875000   26.625000
Ar    8.875000   12.425000    1.775000
Ar    8.875000   12.425000    5.325000
Ar    8.875000   12.425000    8.875000
Ar    8.875000   12.425000   12.425000
Ar    8.875000   12.425000   15.975000
Ar    8.875000   12.425000   19.525000
Ar    8.875000   12.425000   23.075000
Ar    8.875000   12.425000   26.625000
Ar    8.875000   15.975000    1.775000
Ar    8.875000   15.975000    5.325000
Ar    8.875000   15.975000    8.875000
Ar    8.875000   15.975000   12.425000
Ar    8.875000   15.975000   15.975000
Ar    8.875000   15.975000   19.525000
Ar    8.875000   15.975000   23.075000
Ar    8.875000   15.975000   26.625000
Ar    8.875000   19.525000    1.775000
Ar    8.875000   19.525000    5.325000
Ar    8.875000   19.525000    8.875000
Ar    8.875000   19.525000   12.425000
Ar    8.875000   19.525000   15.975000
Ar    8.875000   19.525000   19.525000
Ar    8.875000   19.525000   23.075000
Ar    8.875000   19.525000   26.625000
Ar    8.875000   23.075000    1.775000
Ar    8.875000   23.075000    5.325000
Ar    8.875000   23.075000    8.875000
Ar    8.875000   23.075000   12.425000
Ar    8.875000   23.075000   15.975000
Ar    8.875000   23.075000   19.525000
Ar    8.875000   23.075000   23.075000
Ar    8.875000   23.075000   26.625000
Ar    8.875000   26.625000    1.775000
Ar    8.875000   26.625000    5.325000
Ar    8.875000   26.625000    8.875000
Ar    8.875000   26.625000   12.425000
Ar    8.875000   26.625000   15.975000
Ar    8.875000   26.625000   19.525000
Ar    8.875000   26.625000   23.075000
Ar    8.875000   26.625000   26.625000
Ar   12.425000    1.775000    1.775000
Ar   12.425000    1.775000    5.325000
Ar   12.425000    1.775000    8.875000
Ar   12.425000    1.775000   12.425000
Ar   12.425000    1.775000   15.975000
Ar   12.425000    1.775000   19.525000
Ar   12.425000    1.775000   23.075000
Ar   12.425000    1.775000   26.625000
Ar   12.425000    5.325000    1.775000
Ar   12.425000    5.325000    5.325000
Ar   12.425000    5.325000    8.875000
Ar   12.425000    5.325000   12.425000
Ar   12.425000    5.325000   15.975000
Ar   12.425000    5.325000   19.525000
Ar   12.425000    5.325000   23.075000
Ar   12.425000    5.325000   26.625000
Ar   12.425000    8.875000    1.775000
Ar   12.425000    8.875000    5.325000
Ar   12.425000    8.875000    8.875000
Ar   12.425000    8.875000   12.425000
Ar   12.425000    8.875000   15.975000
Ar   12.425000    8.875000   19.525000
Ar   12.425000    8.875000   23.075000
Ar   12.425000    8.875000   26.625000
Ar   12.425000   12.425000    1.775000
Ar   12.425000   12.425000    5.325000
Ar   12.425000   12.425000    8.875000
Ar   12.425000   12.425000   12.425000
Ar   12.425000   12.425000   15.975000
Ar   12.425000   12.425000   19.525000
Ar   12.425000   12.425000   23.075000
Ar   12.425000   12.425000   26.625000
Ar   12.425000   15.975000    1.775000
Ar   12.425000   15.975000    5.325000
Ar   12.425000   15.975000    8.875000
Ar   12.425000   15.975000   12.425000
Ar   12.425000   15.975000   15.975000
Ar   12.425000   15.975000   19.525000
Ar   12.425000   15.975000   23.075000
Ar   12.425000   15.975000   26.625000
Ar   12.425000   19.525000    1.775000
Ar   12.425000   19.525000    5.325000
Ar   12.425000   19.525000    8.875000
Ar   12.425000   19.525000   12.425000
Ar   12.425000   19.525000   15.975000
Ar   12.425000   19.525000   19.525000
Ar   12.425000   19.525000   23.075000
Ar   12.425000   19.525000   26.625000
Ar   12.425000   23.075000    1.775000
Ar   12.425000   23.075000    5.325000
Ar   12.425000   23.075000    8.875000
Ar   12.425000   23.075000   12.425000
Ar   12.425000   23.075000   15.975000
Ar   12.425000   23.075000   19.525000
Ar   12.425000   23.075000   23.075000
Ar   12.425000   23.075000   26.625000
Ar   12.425000   26.625000    1.775000
Ar   12.425000   26.625000    5.325000
Ar   12.425000   26.625000    8.875000
Ar   12.425000   26.625000   12.425000
Ar   12.425000   26.625000   15.975000
Ar   12.425000   26.625000   19.525000
Ar   12.425000   26.625000   23.075000
Ar   12.425000   26.625000   26.625000
Ar   15.975000    1.775000    1.775000
Ar   15.975000    1.775000    5.325000
Ar   15.975000    1.775000    8.875000
Ar   15.975000    1.775000   12.425000
Ar   15.975000    1.775000   15.975000
Ar   15.975000    1.775000   19.525000
Ar   15.975000    1.775000   23.075000
Ar   15.975000    1.775000   26.625000
Ar   15.975000    5.325000    1.775000
Ar   15.975000    5.325000    5.325000
Ar   15.975000    5.325000    8.875000
Ar   15.975000    5.325000   12.425000
Ar   15.975000    5.325000   15.975000
Ar   15.975000    5.325000   19.525000
Ar   15.975000    5.325000   23.075000
Ar   15.975000    5.325000   26.625000
Ar   15.975000    8.875000    1.775000
Ar   15.975000    8.875000    5.325000
Ar   15.975000    8.875000    8.875000
Ar   15.975000    8.875000   12.425000
Ar   15.975000    8.875000   15.975000
Ar   15.975000    8.875000   19.525000
Ar   15.975000    8.875000   23.075000
Ar   15.975000    8.875000   26.625000
Ar   15.975000   12.425000    1.775000
Ar   15.975000   12.425000    5.325000
Ar   15.975000   12.425000    8.875000
Ar   15.975000   12.425000   12.425000
Ar   15.975000   12.425000   15.975000
Ar   15.975000   12.425000   19.525000
Ar   15.975000   12.425000   23.075000
Ar   15.975000   12.425000   26.625000
Ar   15.975000   15.975000    1.775000
Ar   15.975000   15.975000    5.325000
Ar   15.975000   15.975000    8.875000
Ar   15.975000   15.975000   12.425000
Ar   15.975000   15.975000   15.975000
Ar   15.975000   15.975000   19.525000
Ar   15.975000   15.975000   23.075000
Ar   15.975000   15.975000   26.625000
Ar   15.975000   19.525000    1.775000
Ar   15.975000   19.525000    5.325000
Ar   15.975000   19.525000    8.875000
Ar   15.975000   19.525000   12.425000
Ar   15.975000   19.525000   15.975000
Ar   15.975000   19.525000   19.525000
Ar   15.975000   19.525000   23.075000
Ar   15.975000   19.525000   26.625000
Ar   15.975000   23.075000    1.775000
Ar   15.975000   23.075000    5.325000
Ar   15.975000   23.075000    8.875000
Ar   15.975000   23.075000   12.425000
Ar   15.975000   23.075000   15.975000
Ar   15.975000   23.075000   19.525000
Ar   15.975000   23.075000   23.075000
Ar   15.975000   23.075000   26.625000
Ar   15.975000   26.625000    1.775000
Ar   15.975000   26.625000    5.325000
Ar   15.975000   26.625000    8.875000
Ar   15.975000   26.625000   12.425000
Ar   15.975000   26.625000   15.975000
Ar   15.975000   26.625000   19.525000
Ar   15.975000   26.625000   23.075000
Ar   15.975000   26.625000   26.625000
Ar   19.525000    1.775000    1.775000
Ar   19.525000    1.775000    5.325000
Ar   19.525000    1.775000    8.875000
Ar   19.525000    1.775000   12.425000
Ar   19.525000    1.775000   15.975000
Ar   19.525000    1.775000   19.525000
Ar   19.525000    1.775000   23.075000
Ar   19.525000    1.775000   26.625000
Ar   19.525000    5.325000    1.775000
Ar   19.525000    5.325000    5.325000
Ar   19.525000    5.325000    8.875000
Ar   19.525000    5.325000   12.425000
Ar   19.525000    5.325000   15.975000
Ar   19.525000    5.325000   19.525000
Ar   19.525000    5.325000   23.075000
Ar   19.525000    5.325000   26.625000
Ar   19.525000    8.875000    1.775000
Ar   19.525000    8.875000    5.325000
Ar   19.525000    8.875000    8.875000
Ar   19.525000    8.875000   12.425000
Ar   19.525000    8.875000   15.975000
Ar   19.525000    8.875000   19.525000
Ar   19.525000    8.875000   23.075000
Ar   19.525000    8.875000   26.625000
Ar   19.525000   12.425000    1.775000
Ar   19.525000   12.425000    5.325000
Ar   19.525000   12.425000    8.875000
Ar   19.525000   12.425000   12.425000
Ar   19.525000   12.425000   15.975000
Ar   19.525000   12.425000   19.525000
Ar   19.525000   12.425000   23.075000
Ar   19.525000   12.425000   26.625000
Ar   19.525000   15.975000    1.775000
Ar   19.525000   15.975000    5.325000
Ar   19.525000   15.975000    8.875000
Ar   19.525000   15.975000   12.425000
Ar   19.525000   15.975000   15.975000
Ar   19.525000   15.975000   19.525000
Ar   19.525000   15.975000   23.075000
Ar   19.525000   15.975000   26.625000
Ar   19.525000   19.525000    1.775000
Ar   19.525000   19.525000    5.325000
Ar   19.525000   19.525000    8.875000
Ar   19.525000   19.525000   12.425000
Ar   19.525000   19.525000   15.975000
Ar   19.525000   19.525000   19.525000
Ar   19.525000   19.525000   23.075000
Ar   19.525000   19.525000   26.625000
Ar   19.525000   23.075000    1.775000
Ar   19.525000   23.075000    5.325000
Ar   19.525000   23.075000    8.875000
Ar   19.525000   23.075000   12.425000
Ar   19.525000   23.075000   15.975000
Ar   19.525000   23.075000   19.525000
Ar   19.525000   23.075000   23.075000
Ar   19.525000   23.075000   26.625000
Ar   19.525000   26.625000    1.775000
Ar   19.525000   26.625000    5.325000
Ar   19.525000   26.625000    8.875000
Ar   19.525000   26.625000   12.425000
Ar   19.525000   26.625000   15.975000
Ar   19.525000   26.625000   19.525000
Ar   19.525000   26.625000   23.075000
Ar   19.525000   26.625000   26.625000
Ar   23.075000    1.775000    1.775000
Ar   23.075000    1.775000    5.325000
Ar   23.075000    1.775000    8.875000
Ar   23.075000    1.775000   12.425000
Ar   23.075000    1.775000   15.975000
Ar   23.075000    1.775000   19.525000
Ar   23.075000    1.775000   23.075000
Ar   23.075000    1.775000   26.625000
Ar   23.075000    5.325000    1.775000
Ar   23.075000    5.325000    5.325000
Ar   23.075000    5.325000    8.875000
Ar   23.075000    5.325000   12.425000
Ar   23.075000    5.325000   15.975000
Ar   23.075000    5.325000   19.525000
Ar   23.075000    5.325000   23.075000
Ar   23.075000    5.325000   26.625000
Ar   23.075000    8.875000    1.775000
Ar   23.075000    8.875000    5.325000
Ar   23.075000    8.875000    8.875000
Ar   23.075000    8.875000   12.425000
Ar   23.075000    8.875000   15.975000
Ar   23.075000    8.875000   19.525000
Ar   23.075000    8.875000   23.075000
Ar   23.075000    8.875000   26.625000
Ar   23.075000   12.425000    1.775000
Ar   23.075000   12.425000    5.325000
Ar   23.075000   12.425000    8.875000
Ar   23.075000   12.425000   12.425000
Ar   23.075000   12.425000   15.975000
Ar   23.075000   12.425000   19.525000
Ar   23.075000   12.425000   23.075000
Ar   23.075000   12.425000   26.625000
Ar   23.075000   15.975000    1.775000
Ar   23.075000   15.975000    5.325000
Ar   23.075000   15.975000    8.875000
Ar   23.075000   15.975000   12.425000
Ar   23.075000   15.975000   15.975000
Ar   23.075000   15.975000   19.525000
Ar   23.075000   15.975000   23.075000
Ar   23.075000   15.975000   26.625000
Ar   23.075000   19.525000    1.775000
Ar   23.075000   19.525000    5.325000
Ar   23.075000   19.525000    8.875000
Ar   23.075000   19.525000   12.425000
Ar   23.075000   19.525000   15.975000
Ar   23.075000   19.525000   19.525000
Ar   23.075000   19.525000   23.075000
Ar   23.075000   19.525000   26.625000
Ar   23.075000   23.075000    1.775000
Ar   23.075000   23.075000    5.325000
Ar   23.075000   23.075000    8.875000
Ar   23.075000   23.075000   12.425000
Ar   23.075000   23.075000   15.975000
Ar   23.075000   23.075000   19.525000
Ar   23.075000   23.075000   23.075000
Ar   23.075000   23.075000   26.625000
Ar   23.075000   26.625000    1.775000
Ar   23.075000   26.625000    5.325000
Ar   23.075000   26.625000    8.875000
Ar   23.075000   26.625000   12.425000
Ar   23.075000   26.625000   15.975000
Ar   23.075000   26.625000   19.525000
Ar   23.075000   26.625000   23.075000
Ar   23.075000   26.625000   26.625000
Ar   26.625000    1.775000    1.775000
Ar   26.625000    1.775000    5.325000
Ar   26.625000    1.775000    8.875000
Ar   26.625000    1.775000   12.425000
Ar   26.625000    1.775000   15.975000
Ar   26.625000    1.775000   19.525000
Ar   26.625000    1.775000   23.075000
Ar   26.625000    1.775000   26.625000
Ar   26.625000    5.325000    1.775000
Ar   26.625000    5.325000    5.325000
Ar   26.625000    5.325000    8.875000
Ar   26.625000    5.325000   12.425000
Ar   26.625000    5.325000   15.975000
Ar   26.625000    5.325000   19.525000
Ar   26.625000    5.325000   23.075000
Ar   26.625000    5.325000   26.625000
Ar   26.625000    8.875000    1.775000
Ar   26.625000    8.875000    5.325000
Ar   26.625000    8.875000    8.875000
Ar   26.625000    8.875000   12.425000
Ar   26.625000    8.875000   15.975000
Ar   26.625000    8.875000   19.525000
Ar   26.625000    8.875000   23.075000
Ar   26.625000    8.875000   26.625000
Ar   26.625000   12.425000    1.775000
Ar   26.625000   12.425000    5.325000
Ar   26.625000   12.425000    8.875000
Ar   26.625000   12.425000   12.425000
Ar   26.625000   12.425000   15.975000
Ar   26.625000   12.425000   19.525000
Ar   26.625000   12.425000   23.075000
Ar   26.625000   12.425000   26.625000
Ar   26.625000   15.975000    1.775000
Ar   26.625000   15.975000    5.325000
Ar   26.625000   15.975000    8.875000
Ar   26.625000   15.975000   12.425000
Ar   26.625000   15.975000   15.975000
Ar   26.625000   15.975000   19.525000
Ar   26.625000   15.975000   23.075000
Ar   26.625000   15.975000   26.625000
Ar   26.625000   19.525000    1.775000
Ar   26.625000   19.525000    5.325000
Ar   26.625000   19.525000    8.875000
Ar   26.625000   19.525000   12.425000
Ar   26.625000   19.525000   15.975000
Ar   26.625000   19.525000   19.525000
Ar   26.625000   19.525000   23.075000
Ar   26.625000   19.525000   26.625000
Ar   26.625000   23.075000    1.775000
Ar   26.625000   23.075000    5.325000
Ar   26.625000   23.075000    8.875000
Ar   26.625000   23.075000   12.425000
Ar   26.625000   23.075000   15.975000
Ar   26.625000   23.075000   19.525000
Ar   26.625000   23.075000   23.075000
Ar   26.625000   23.075000   26.625000
Ar   26.625000   26.625000    1.775000
Ar   26.625000   26.625000    5.325000
Ar   26.625000   26.625000    8.875000
Ar   26.625000   26.625000   12.425000
Ar   26.625000   26.625000   15.975000
Ar   26.625000   26.625000   19.525000
Ar   26.625000   26.625000   23.075000
Ar   26.625000   26.625000   26.625000
512 
Step 1 , box:   28.400    28.400    28.400
Ar    1.767625    1.780344    1.779528
Ar    1.777882    1.777828    5.323132
Ar    1.780982    1.772011    8.873189
Ar    1.777463    1.774660   12.419927
Ar    1.768390    1.775444   15.968945
Ar    1.769304    1.780143   19.524208
Ar    1.774590    1.776930   23.080960
Ar    1.779610    1.772179   26.630174
Ar    1.781494    5.326275    1.773104
Ar    1.776468    5.326791    5.325260
Ar    1.768363    5.318259    8.876439
Ar    1.782173    5.319220   12.417924
Ar    1.776138    5.331859   15.971974
Ar    1.768338    5.327788   19.527916
Ar    1.776350    5.323194   23.069436
Ar    1.778673    5.323115   26.620526
Ar    1.775740    8.874658    1.780400
Ar    1.771975    8.881526    5.331749
Ar    1.781126    8.874479    8.881665
Ar    1.777464    8.880039   12.424084
Ar    1.782302    8.872753   15.976072
Ar    1.772064    8.874562   19.522807
Ar    1.772125    8.869656   23.069293
Ar    1.781689    8.876937   26.626428
Ar    1.773133   12.428106    1.769215
Ar    1.779313   12.430112    5.324372
Ar    1.781503   12.425962    8.874246
Ar    1.778019   12.432420   12.419152
Ar    1.769084   12.432191   15.969578
Ar    1.769147   12.430898   19.531490
Ar    1.768711   12.430857   23.072511
Ar    1.767734   12.428240   26.630745
Ar    1.780859   15.968110    1.780902
Ar    1.775251   15.975689    5.323929
Ar    1.771852   15.977992    8.868177
Ar    1.768245   15.977253   12.421089
Ar    1.767768   15.970620   15.975832
Ar    1.774016   15.979679   19.522624
Ar    1.769051   15.969611   23.070323
Ar    1.770755   15.968631   26.627147
Ar    1.770562   19.530892    1.775889
Ar    1.772127   19.518622    5.319720
Ar    1.771544   19.522577    8.870221
Ar    1.767828   19.527051   12.420968
Ar    1.773806   19.529050   15.981172
Ar    1.771806   19.524197   19.530643
Ar    1.782285   19.529641   23.075342
Ar    1.776192   19.519103   26.617390
Ar    1.780280   23.071283    1.779446
Ar    1.779097   23.077211    5.322321
Ar    1.778135   23.077137    8.879684
Ar    1.778921   23.072503   12.431366
Ar    1.781840   23.068732   15.974717
Ar    1.779321   23.080066   19.518065
Ar    1.776313   23.073645   23.072827
Ar    1.773851   23.076552   26.630017
Ar    1.768728   26.625669    1.779306
Ar    1.773419   26.623743    5.327218
Ar    1.774072   26.618164    8.879804
Ar    1.775642   26.617667   12.418177
Ar    1.768504   26.624702   15.980745
Ar    1.768900   26.619845   19.527615
Ar    1.774251   26.629227   23.071488
Ar    1.778146   26.618457   26.626770
Ar    5.324723    1.775218    1.780203
Ar    5.323070    1.779561    5.326199
Ar    5.318105    1.780452    8.870643
Ar    5.328365    1.775989   12.423149
Ar    5.330960    1.777644   15.975987
Ar    5.321027    1.775667   19.521153
Ar    5.332603    1.777497   23.069891
Ar    5.331445    1.771792   26.621228
Ar    5.322648    5.325460    1.770146
Ar    5.326735    5.324329    5.320721
Ar    5.326127    5.322255    8.879939
Ar    5.323760    5.320299   12.430997
Ar    5.328346    5.321086   15.977163
Ar    5.320808    5.329527   19.522000
Ar    5.319339    5.332278   23.078419
Ar    5.322082    5.327534   26.621442
Ar    5.326672    8.869050    1.772836
Ar    5.324459    8.867651    5.332044
Ar    5.330105    8.867896    8.869816
Ar    5.324960    8.869115   12.419873
Ar    5.320057    8.874426   15.972251
Ar    5.331857    8.882307   19.526778
Ar    5.329527    8.868678   23.082178
Ar    5.326995    8.880480   26.624110
Ar    5.323560   12.432272    1.773654
Ar    5.323011   12.422237    5.324698
Ar    5.331983   12.418718    8.877621
Ar    5.330834   12.429733   12.427625
Ar    5.330024   12.419686   15.980061
Ar    5.322517   12.427331   19.519463
Ar    5.321425   12.429908   23.069275
Ar    5.331534   12.429284   26.621119
Ar    5.326471   15.973887    1.775770
Ar    5.329777   15.978235    5.326458
Ar    5.319858   15.970571    8.874413
Ar    5.332035   15.975612   12.420554
Ar    5.326456   15.972016   15.975475
Ar    5.328382   15.977442   19.518325
Ar    5.331177   15.971165   23.071413
Ar    5.320538   15.969316   26.623943
Ar    5.327947   19.519377    1.771987
Ar    5.330585   19.517961    5.325769
Ar    5.328506   19.526172    8.877994
Ar    5.321234   19.527488   12.428267
Ar    5.326274   19.530869   15.978331
Ar    5.319922   19.531202   19.523837
Ar    5.331430   19.532027   23.071587
Ar    5.324472   19.531601   26.621884
Ar    5.329405   23.079310    1.780606
Ar    5.332481   23.081943    5.329518
Ar    5.319614   23.078038    8.870759
Ar    5.325982   23.068505   12.427748
Ar    5.329232   23.067758   15.978493
Ar    5.332554   23.081631   19.524372
Ar    5.324342   23.073797   23.077114
Ar    5.332334   23.073179   26.629547
Ar    5.328500   26.629819    1.779771
Ar    5.325452   26.620726    5.324482
Ar    5.323455   26.622626    8.876874
Ar    5.325277   26.619986   12.419437
Ar    5.324089   26.620036   15.973106
Ar    5.326811   26.629121   19.525254
Ar    5.318767   26.618526   23.073379
Ar    5.324857   26.629850   26.624585
Ar    8.872898    1.779494    1.777670
Ar    8.869168    1.779769    5.328245
Ar    8.882393    1.769264    8.874651
Ar    8.870583    1.775303   12.432274
Ar    8.877127    1.779738   15.977274
Ar    8.879476    1.781091   19.524536
Ar    8.876024    1.768350   23.079491
Ar    8.882230    1.770597   26.621746
Ar    8.877706    5.326761    1.778887
Ar    8.876873    5.324353    5.327006
Ar    8.878251    5.324146    8.872633
Ar    8.871982    5.329304   12.419439
Ar    8.876066    5.322005   15.973437
Ar    8.871772    5.323228   19.523517
Ar    8.868250    5.325921   23.074516
Ar    8.870599    5.328535   26.626266
Ar    8.880552    8.875245    1.775069
Ar    8.872304    8.879740    5.325607
Ar    8.872961    8.875594    8.880838
Ar    8.877556    8.873337   12.422699
Ar    8.878500    8.869736   15.981851
Ar    8.876369    8.873419   19.518426
Ar    8.880188    8.879453   23.074748
Ar    8.872276    8.874313   26.623401
Ar    8.869609   12.431740    1.775465
Ar    8.870597   12.427424    5.327973
Ar    8.871007   12.428784    8.872301
Ar    8.873604   12.429797   12.429089
Ar    8.868082   12.426541   15.974655
Ar    8.873280   12.419664   19.521269
Ar    8.871789   12.426892   23.076291
Ar    8.881430   12.431439   26.618026
Ar    8.873118   15.981872    1.776401
Ar    8.870405   15.973614    5.323738
Ar    8.875584   15.971620    8.882018
Ar    8.873044   15.974805   12.426513
Ar    8.882457   15.979957   15.967824
Ar    8.880712   15.976103   19.530814
Ar    8.872582   15.972613   23.075475
Ar    8.870710   15.974743   26.619897
Ar    8.873894   19.522835    1.776921
Ar    8.870517   19.517483    5.319133
Ar    8.876827   19.523291    8.875036
Ar    8.873270   19.528694   12.423256
Ar    8.870306   19.523937   15.980197
Ar    8.869828   19.524460   19.519242
Ar    8.881072   19.522715   23.077696
Ar    8.877914   19.523477   26.620256
Ar    8.871816   23.074613    1.779529
Ar    8.873466   23.073524    5.326507
Ar    8.872959   23.070233    8.871783
Ar    8.873717   23.074599   12.421218
Ar    8.880310   23.080634   15.968249
Ar    8.877482   23.069158   19.530077
Ar    8.880514   23.067587   23.079178
Ar    8.872232   23.069183   26.621290
Ar    8.875593   26.628843    1.774267
Ar    8.874113   26.631931    5.317510
Ar    8.881408   26.624080    8.877934
Ar    8.877784   26.621627   12.428874
Ar    8.880197   26.630889   15.976108
Ar    8.877898   26.623536   19.520809
Ar    8.868636   26.624717   23.079871
Ar    8.872905   26.622081   26.630815
Ar   12.417781    1.772255    1.780345
Ar   12.426761    1.771878    5.326778
Ar   12.423023    1.772078    8.868834
Ar   12.422607    1.773682   12.429423
Ar   12.422831    1.775445   15.968264
Ar   12.427747    1.771576   19.522264
Ar   12.418850    1.777782   23.071849
Ar   12.421551    1.776341   26.623432
Ar   12.426148    5.329861    1.782036
Ar   12.432240    5.327441    5.319606
Ar   12.426747    5.327594    8.877321
Ar   12.429904    5.321053   12.425202
Ar   12.424885    5.324573   15.974689
Ar   12.425275    5.331262   19.531830
Ar   12.423939    5.328462   23.078853
Ar   12.428079    5.317639   26.624463
Ar   12.432504    8.882131    1.772631
Ar   12.429762    8.875328    5.321739
Ar   12.430551    8.873488    8.873186
Ar   12.421757    8.876498   12.428575
Ar   12.428863    8.881838   15.980788
Ar   12.418290    8.875624   19.530436
Ar   12.424598    8.869407   23.075725
Ar   12.419282    8.872681   26.621289
Ar   12.418981   12.427217    1.770863
Ar   12.423204   12.428881    5.331532
Ar   12.429514   12.421115    8.868103
Ar   12.421123   12.419235   12.431632
Ar   12.428043   12.424709   15.972274
Ar   12.417738   12.422067   19.521656
Ar   12.429869   12.422977   23.075317
Ar   12.426522   12.418796   26.630783
Ar   12.430235   15.978788    1.776717
Ar   12.432284   15.976776    5.318626
Ar   12.430936   15.976647    8.874493
Ar   12.431411   15.978126   12.422697
Ar   12.427032   15.969039   15.978420
Ar   12.428251   15.979510   19.519701
Ar   12.429075   15.975056   23.074672
Ar   12.425919   15.977099   26.623980
Ar   12.418015   19.518513    1.773605
Ar   12.428276   19.523872    5.321064
Ar   12.426288   19.517864    8.871880
Ar   12.423729   19.526132   12.431336
Ar   12.421021   19.532182   15.978720
Ar   12.427658   19.526453   19.526779
Ar   12.422584   19.521286   23.073099
Ar   12.422042   19.530407   26.624883
Ar   12.429047   23.081141    1.782164
Ar   12.432352   23.080547    5.328369
Ar   12.417973   23.067646    8.877570
Ar   12.421731   23.081888   12.421677
Ar   12.424307   23.081529   15.981440
Ar   12.421543   23.072380   19.524751
Ar   12.419860   23.081280   23.082200
Ar   12.431526   23.079461   26.620419
Ar   12.427824   26.625246    1.769726
Ar   12.417745   26.625213    5.319425
Ar   12.431263   26.630813    8.868006
Ar   12.422207   26.628196   12.417522
Ar   12.429444   26.620992   15.978094
Ar   12.429115   26.624884   19.522823