512 
Step 0 , box:   28.400    28.400    28.400
Ar    1.775000    1.775000    1.775000
Ar    1.775000    1.775000    5.325000
Ar    1.775000    1.775000    8.875000
Ar    1.775000    1.775000   12.425000
Ar    1.775000    1.775000   15.975000
Ar    1.775000    1.775000   19.525000
Ar    1.775000    1.775000   23.075000
Ar    1.775000    1.775000   26.625000
Ar    1.775000    5.325000    1.775000
Ar    1.775000    5.325000    5.325000
Ar    1.775000    5.325000    8.875000
Ar    1.775000    5.325000   12.425000
Ar    1.775000    5.325000   15.975000
Ar    1.775000    5.325000   19.525000
Ar    1.775000    5.325000   23.075000
Ar    1.775000    5.325000   26.625000
Ar    1.775000    8.875000    1.775000
Ar    1.775000    8.875000    5.325000
Ar    1.775000    8.875000    8.875000
Ar    1.775000    8.875000   12.425000
Ar    1.775000    8.875000   15.975000
Ar    1.775000    8.875000   19.525000
Ar    1.775000    8.875000   23.075000
Ar    1.775000    8.875000   26.625000
Ar    1.775000   12.425000    1.775000
Ar    1.775000   12.425000    5.325000
Ar    1.775000   12.425000    8.875000
Ar    1.775000   12.425000   12.425000
Ar    1.775000   12.425000   15.975000
Ar    1.775000   12.425000   19.525000
Ar    1.775000   12.425000   23.075000
Ar    1.775000   12.425000   26.625000
Ar    1.775000   15.975000    1.775000
Ar    1.775000   15.975000    5.325000
Ar    1.775000   15.975000    8.875000
Ar    1.775000   15.975000   12.425000
Ar    1.775000   15.975000   15.975000
Ar    1.775000   15.975000   19.525000
Ar    1.775000   15.975000   23.075000
Ar    1.775000   15.975000   26.625000
Ar    1.775000   19.525000    1.775000
Ar    1.775000   19.525000    5.325000
Ar    1.775000   19.525000    8.875000
Ar    1.775000   19.525000   12.425000
Ar    1.775000   19.525000   15.975000
Ar    1.775000   19.525000   19.525000
Ar    1.775000   19.525000   23.075000
Ar    1.775000   19.525000   26.625000
Ar    1.775000   23.075000    1.775000
Ar    1.775000   23.075000    5.325000
Ar    1.775000   23.075000    8.875000
Ar    1.775000   23.075000   12.425000
Ar    1.775000   23.075000   15.975000
Ar    1.775000   23.075000   19.525000
Ar    1.775000   23.075000   23.075000
Ar    1.775000   23.075000   26.625000
Ar    1.775000   26.625000    1.775000
Ar    1.775000   26.625000    5.325000
Ar    1.775000   26.625000    8.875000
Ar    1.775000   26.625000   12.425000
Ar    1.775000   26.625000   15.975000
Ar    1.775000   26.625000   19.525000
Ar    1.775000   26.625000   23.075000
Ar    1.775000   26.625000   26.625000
Ar    5.325000    1.775000    1.775000
Ar    5.325000    1.775000    5.325000
Ar    5.325000    1.775000    8.875000
Ar    5.325000    1.775000   12.425000
Ar    5.325000    1.775000   15.975000
Ar    5.325000    1.775000   19.525000
Ar    5.325000    1.775000   23.075000
Ar    5.325000    1.775000   26.625000
Ar    5.325000    5.325000    1.775000
Ar    5.325000    5.325000    5.325000
Ar    5.325000    5.325000    8.875000
Ar    5.325000    5.325000   12.425000
Ar    5.325000    5.325000   15.975000
Ar    5.325000    5.325000   19.525000
Ar    5.325000    5.325000   23.075000
Ar    5.325000    5.325000   26.625000
Ar    5.325000    8.875000    1.775000
Ar    5.325000    8.875000    5.325000
Ar    5.325000    8.875000    8.875000
Ar    5.325000    8.875000   12.425000
Ar    5.325000    8.875000   15.975000
Ar    5.325000    8.875000   19.525000
Ar    5.325000    8.875000   23.075000
Ar    5.325000    8.875000   26.625000
Ar    5.325000   12.425000    1.775000
Ar    5.325000   12.425000    5.325000
Ar    5.325000   12.425000    8.875000
Ar    5.325000   12.425000   12.425000
Ar    5.325000   12.425000   15.975000
Ar    5.325000   12.425000   19.525000
Ar    5.325000   12.425000   23.075000
Ar    5.325000   12.425000   26.625000
Ar    5.325000   15.975000    1.775000
Ar    5.325000   15.975000    5.325000
Ar    5.325000   15.975000    8.875000
Ar    5.325000   15.975000   12.425000
Ar    5.325000   15.975000   15.975000
Ar    5.325000   15.975000   19.525000
Ar    5.325000   15.975000   23.075000
Ar    5.325000   15.975000   26.625000
Ar    5.325000   19.525000    1.775000
Ar    5.325000   19.525000    5.325000
Ar    5.325000   19.525000    8.875000
Ar    5.325000   19.525000   12.425000
Ar    5.325000   19.525000   15.975000
Ar    5.325000   19.525000   19.525000
Ar    5.325000   19.525000   23.075000
Ar    5.325000   19.525000   26.625000
Ar    5.325000   23.075000    1.775000
Ar    5.325000   23.075000    5.325000
Ar    5.325000   23.075000    8.875000
Ar    5.325000   23.075000   12.425000
Ar    5.325000   23.075000   15.975000
Ar    5.325000   23.075000   19.525000
Ar    5.325000   23.075000   23.075000
Ar    5.325000   23.075000   26.625000
Ar    5.325000   26.625000    1.775000
Ar    5.325000   26.625000    5.325000
Ar    5.325000   26.625000    8.875000
Ar    5.325000   26.625000   12.425000
Ar    5.325000   26.625000   15.975000
Ar    5.325000   26.625000   19.525000
Ar    5.325000   26.625000   23.075000
Ar    5.325000   26.625000   26.625000
Ar    8.875000    1.775000    1.775000
Ar    8.875000    1.775000    5.325000
Ar    8.875000    1.775000    8.875000
Ar    8.875000    1.775000   12.425000
Ar    8.875000    1.775000   15.975000
Ar    8.875000    1.775000   19.525000
Ar    8.875000    1.775000   23.075000
Ar    8.875000    1.775000   26.625000
Ar    8.875000    5.325000    1.775000
Ar    8.875000    5.325000    5.325000
Ar    8.875000    5.325000    8.875000
Ar    8.875000    5.325000   12.425000
Ar    8.875000    5.325000   15.975000
Ar    8.875000    5.325000   19.525000
Ar    8.875000    5.325000   23.075000
Ar    8.875000    5.325000   26.625000
Ar    8.875000    8.875000    1.775000
Ar    8.875000    8.875000    5.325000
Ar    8.875000    8.875000    8.875000
Ar    8.875000    8.875000   12.425000
Ar    8.875000    8.875000   15.975000
Ar    8.875000    8.875000   19.525000
Ar    8.875000    8.875000   23.075000
Ar    8.875000    8.875000   26.625000
Ar    8.875000   12.425000    1.775000
Ar    8.875000   12.425000    5.325000
Ar    8.875000   12.425000    8.875000
Ar    8.875000   12.425000   12.425000
Ar    8.875000   12.425000   15.975000
Ar    8.875000   12.425000   19.525000
Ar    8.875000   12.425000   23.075000
Ar    8.875000   12.425000   26.625000
Ar    8.875000   15.975000    1.775000
Ar    8.875000   15.975000    5.325000
Ar    8.875000   15.975000    8.875000
Ar    8.875000   15.975000   12.425000
Ar    8.875000   15.975000   15.975000
Ar    8.875000   15.975000   19.525000
Ar    8.875000   15.975000   23.075000
Ar    8.875000   15.975000   26.625000
Ar    8.875000   19.525000    1.775000
Ar    8.875000   19.525000    5.325000
Ar    8.875000   19.525000    8.875000
Ar    8.875000   19.525000   12.425000
Ar    8.875000   19.525000   15.975000
Ar    8.875000   19.525000   19.525000
Ar    8.875000   19.525000   23.075000
Ar    8.875000   19.525000   26.625000
Ar    8.875000   23.075000    1.775000
Ar    8.875000   23.075000    5.325000
Ar    8.875000   23.075000    8.875000
Ar    8.875000   23.075000   12.425000
Ar    8.875000   23.075000   15.975000
Ar    8.875000   23.075000   19.525000
Ar    8.875000   23.075000   23.075000
Ar    8.875000   23.075000   26.625000
Ar    8.875000   26.625000    1.775000
Ar    8.875000   26.625000    5.325000
Ar    8.875000   26.625000    8.875000
Ar    8.875000   26.625000   12.425000
Ar    8.875000   26.625000   15.975000
Ar    8.875000   26.625000   19.525000
Ar    8.875000   26.625000   23.075000
Ar    8.875000   26.625000   26.625000
Ar   12.425000    1.775000    1.775000
Ar   12.425000    1.775000    5.325000
Ar   12.425000    1.775000    8.875000
Ar   12.425000    1.775000   12.425000
Ar   12.425000    1.775000   15.975000
Ar   12.425000    1.775000   19.525000
Ar   12.425000    1.775000   23.075000
Ar   12.425000    1.775000   26.625000
Ar   12.425000    5.325000    1.775000
Ar   12.425000    5.325000    5.325000
Ar   12.425000    5.325000    8.875000
Ar   12.425000    5.325000   12.425000
Ar   12.425000    5.325000   15.975000
Ar   12.425000    5.325000   19.525000
Ar   12.425000    5.325000   23.075000
Ar   12.425000    5.325000   26.625000
Ar   12.425000    8.875000    1.775000
Ar   12.425000    8.875000    5.325000
Ar   12.425000    8.875000    8.875000
Ar   12.425000    8.875000   12.425000
Ar   12.425000    8.875000   15.975000
Ar   12.425000    8.875000   19.525000
Ar   12.425000    8.875000   23.075000
Ar   12.425000    8.875000   26.625000
Ar   12.425000   12.425000    1.775000
Ar   12.425000   12.425000    5.325000
Ar   12.425000   12.425000    8.875000
Ar   12.425000   12.425000   12.425000
Ar   12.425000   12.425000   15.975000
Ar   12.425000   12.425000   19.525000
Ar   12.425000   12.425000   23.075000
Ar   12.425000   12.425000   26.625000
Ar   12.425000   15.975000    1.775000
Ar   12.425000   15.975000    5.325000
Ar   12.425000   15.975000    8.875000
Ar   12.425000   15.975000   12.425000
Ar   12.425000   15.975000   15.975000
Ar   12.425000   15.975000   19.525000
Ar   12.425000   15.975000   23.075000
Ar   12.425000   15.975000   26.625000
Ar   12.425000   19.525000    1.775000
Ar   12.425000   19.525000    5.325000
Ar   12.425000   19.525000    8.875000
Ar   12.425000   19.525000   12.425000
Ar   12.425000   19.525000   15.975000
Ar   12.425000   19.525000   19.525000
Ar   12.425000   19.525000   23.075000
Ar   12.425000   19.525000   26.625000
Ar   12.425000   23.075000    1.775000
Ar   12.425000   23.075000    5.325000
Ar   12.425000   23.075000    8.875000
Ar   12.425000   23.075000   12.425000
Ar   12.425000   23.075000   15.975000
Ar   12.425000   23.075000   19.525000
Ar   12.425000   23.075000   23.075000
Ar   12.425000   23.075000   26.625000
Ar   12.425000   26.625000    1.775000
Ar   12.425000   26.625000    5.325000
Ar   12.425000   26.625000    8.875000
Ar   12.425000   26.625000   12.425000
Ar   12.425000   26.625000   15.975000
Ar   12.425000   26.625000   19.525000
Ar   12.425000   26.625000   23.075000
Ar   12.425000   26.625000   26.625000
Ar   15.975000    1.775000    1.775000
Ar   15.975000    1.775000    5.325000
Ar   15.975000    1.775000    8.875000
Ar   15.975000    1.775000   12.425000
Ar   15.975000    1.775000   15.975000
Ar   15.975000    1.775000   19.525000
Ar   15.975000    1.775000   23.075000
Ar   15.975000    1.775000   26.625000
Ar   15.975000    5.325000    1.775000
Ar   15.975000    5.325000    5.325000
Ar   15.975000    5.325000    8.875000
Ar   15.975000    5.325000   12.425000
Ar   15.975000    5.325000   15.975000
Ar   15.975000    5.325000   19.525000
Ar   15.975000    5.325000   23.075000
Ar   15.975000    5.325000   26.625000
Ar   15.975000    8.875000    1.775000
Ar   15.975000    8.875000    5.325000
Ar   15.975000    8.875000    8.875000
Ar   15.975000    8.875000   12.425000
Ar   15.975000    8.875000   15.975000
Ar   15.975000    8.875000   19.525000
Ar   15.975000    8.875000   23.075000
Ar   15.975000    8.875000   26.625000
Ar   15.975000   12.425000    1.775000
Ar   15.975000   12.425000    5.325000
Ar   15.975000   12.425000    8.875000
Ar   15.975000   12.425000   12.425000
Ar   15.975000   12.425000   15.975000
Ar   15.975000   12.425000   19.525000
Ar   15.975000   12.425000   23.075000
Ar   15.975000   12.425000   26.625000
Ar   15.975000   15.975000    1.775000
Ar   15.975000   15.975000    5.325000
Ar   15.975000   15.975000    8.875000
Ar   15.975000   15.975000   12.425000
Ar   15.975000   15.975000   15.975000
Ar   15.975000   15.975000   19.525000
Ar   15.975000   15.975000   23.075000
Ar   15.975000   15.975000   26.625000
Ar   15.975000   19.525000    1.775000
Ar   15.975000   19.525000    5.325000
Ar   15.975000   19.525000    8.875000
Ar   15.975000   19.525000   12.425000
Ar   15.975000   19.525000   15.975000
Ar   15.975000   19.525000   19.525000
Ar   15.975000   19.525000   23.075000
Ar   15.975000   19.525000   26.625000
Ar   15.975000   23.075000    1.775000
Ar   15.975000   23.075000    5.325000
Ar   15.975000   23.075000    8.875000
Ar   15.975000   23.075000   12.425000
Ar   15.975000   23.075000   15.975000
Ar   15.975000   23.075000   19.525000
Ar   15.975000   23.075000   23.075000
Ar   15.975000   23.075000   26.625000
Ar   15.975000   26.625000    1.775000
Ar   15.975000   26.625000    5.325000
Ar   15.975000   26.625000    8.875000
Ar   15.975000   26.625000   12.425000
Ar   15.975000   26.625000   15.975000
Ar   15.975000   26.625000   19.525000
Ar   15.975000   26.625000   23.075000
Ar   15.975000   26.625000   26.625000
Ar   19.525000    1.775000    1.775000
Ar   19.525000    1.775000    5.325000
Ar   19.525000    1.775000    8.875000
Ar   19.525000    1.775000   12.425000
Ar   19.525000    1.775000   15.975000
Ar   19.525000    1.775000   19.525000
Ar   19.525000    1.775000   23.075000
Ar   19.525000    1.775000   26.625000
Ar   19.525000    5.325000    1.775000
Ar   19.525000    5.325000    5.325000
Ar   19.525000    5.325000    8.875000
Ar   19.525000    5.325000   12.425000
Ar   19.525000    5.325000   15.975000
Ar   19.525000    5.325000   19.525000
Ar   19.525000    5.325000   23.075000
Ar   19.525000    5.325000   26.625000
Ar   19.525000    8.875000    1.775000
Ar   19.525000    8.875000    5.325000
Ar   19.525000    8.875000    8.875000
Ar   19.525000    8.875000   12.425000
Ar   19.525000    8.875000   15.975000
Ar   19.525000    8.875000   19.525000
Ar   19.525000    8.875000   23.075000
Ar   19.525000    8.875000   26.625000
Ar   19.525000   12.425000    1.775000
Ar   19.525000   12.425000    5.325000
Ar   19.525000   12.425000    8.875000
Ar   19.525000   12.425000   12.425000
Ar   19.525000   12.425000   15.975000
Ar   19.525000   12.425000   19.525000
Ar   19.525000   12.425000   23.075000
Ar   19.525000   12.425000   26.625000
Ar   19.525000   15.975000    1.775000
Ar   19.525000   15.975000    5.325000
Ar   19.525000   15.975000    8.875000
Ar   19.525000   15.975000   12.425000
Ar   19.525000   15.975000   15.975000
Ar   19.525000   15.975000   19.525000
Ar   19.525000   15.975000   23.075000
Ar   19.525000   15.975000   26.625000
Ar   19.525000   19.525000    1.775000
Ar   19.525000   19.525000    5.325000
Ar   19.525000   19.525000    8.875000
Ar   19.525000   19.525000   12.425000
Ar   19.525000   19.525000   15.975000
Ar   19.525000   19.525000   19.525000
Ar   19.525000   19.525000   23.075000
Ar   19.525000   19.525000   26.625000
Ar   19.525000   23.075000    1.775000
Ar   19.525000   23.075000    5.325000
Ar   19.525000   23.075000    8.875000
Ar   19.525000   23.075000   12.425000
Ar   19.525000   23.075000   15.975000
Ar   19.525000   23.075000   19.525000
Ar   19.525000   23.075000   23.075000
Ar   19.525000   23.075000   26.625000
Ar   19.525000   26.625000    1.775000
Ar   19.525000   26.625000    5.325000
Ar   19.525000   26.625000    8.875000
Ar   19.525000   26.625000   12.425000
Ar   19.525000   26.625000   15.975000
Ar   19.525000   26.625000   19.525000
Ar   19.525000   26.625000   23.075000
Ar   19.525000   26.625000   26.625000
Ar   23.075000    1.775000    1.775000
Ar   23.075000    1.775000    5.325000
Ar   23.075000    1.775000    8.875000
Ar   23.075000    1.775000   12.425000
Ar   23.075000    1.775000   15.975000
Ar   23.075000    1.775000   19.525000
Ar   23.075000    1.775000   23.075000
Ar   23.075000    1.775000   26.625000
Ar   23.075000    5.325000    1.775000
Ar   23.075000    5.325000    5.325000
Ar   23.075000    5.325000    8.875000
Ar   23.075000    5.325000   12.425000
Ar   23.075000    5.325000   15.975000
Ar   23.075000    5.325000   19.525000
Ar   23.075000    5.325000   23.075000
Ar   23.075000    5.325000   26.625000
Ar   23.075000    8.875000    1.775000
Ar   23.075000    8.875000    5.325000
Ar   23.075000    8.875000    8.875000
Ar   23.075000    8.875000   12.425000
Ar   23.075000    8.875000   15.975000
Ar   23.075000    8.875000   19.525000
Ar   23.075000    8.875000   23.075000
Ar   23.075000    8.875000   26.625000
Ar   23.075000   12.425000    1.775000
Ar   23.075000   12.425000    5.325000
Ar   23.075000   12.425000    8.875000
Ar   23.075000   12.425000   12.425000
Ar   23.075000   12.425000   15.975000
Ar   23.075000   12.425000   19.525000
Ar   23.075000   12.425000   23.075000
Ar   23.075000   12.425000   26.625000
Ar   23.075000   15.975000    1.775000
Ar   23.075000   15.975000    5.325000
Ar   23.075000   15.975000    8.875000
Ar   23.075000   15.975000   12.425000
Ar   23.075000   15.975000   15.975000
Ar   23.075000   15.975000   19.525000
Ar   23.075000   15.975000   23.075000
Ar   23.075000   15.975000   26.625000
Ar   23.075000   19.525000    1.775000
Ar   23.075000   19.525000    5.325000
Ar   23.075000   19.525000    8.875000
Ar   23.075000   19.525000   12.425000
Ar   23.075000   19.525000   15.975000
Ar   23.075000   19.525000   19.525000
Ar   23.075000   19.525000   23.075000
Ar   23.075000   19.525000   26.625000
Ar   23.075000   23.075000    1.775000
Ar   23.075000   23.075000    5.325000
Ar   23.075000   23.075000    8.875000
Ar   23.075000   23.075000   12.425000
Ar   23.075000   23.075000   15.975000
Ar   23.075000   23.075000   19.525000
Ar   23.075000   23.075000   23.075000
Ar   23.075000   23.075000   26.625000
Ar   23.075000   26.625000    1.775000
Ar   23.075000   26.625000    5.325000
Ar   23.075000   26.625000    8.875000
Ar   23.075000   26.625000   12.425000
Ar   23.075000   26.625000   15.975000
Ar   23.075000   26.625000   19.525000
Ar   23.075000   26.625000   23.075000
Ar   23.075000   26.625000   26.625000
Ar   26.625000    1.775000    1.775000
Ar   26.625000    1.775000    5.325000
Ar   26.625000    1.775000    8.875000
Ar   26.625000    1.775000   12.425000
Ar   26.625000    1.775000   15.975000
Ar   26.625000    1.775000   19.525000
Ar   26.625000    1.775000   23.075000
Ar   26.625000    1.775000   26.625000
Ar   26.625000    5.325000    1.775000
Ar   26.625000    5.325000    5.325000
Ar   26.625000    5.325000    8.875000
Ar   26.625000    5.325000   12.425000
Ar   26.625000    5.325000   15.975000
Ar   26.625000    5.325000   19.525000
Ar   26.625000    5.325000   23.075000
Ar   26.625000    5.325000   26.625000
Ar   26.625000    8.875000    1.775000
Ar   26.625000    8.875000    5.325000
Ar   26.625000    8.875000    8.875000
Ar   26.625000    8.875000   12.425000
Ar   26.625000    8.875000   15.975000
Ar   26.625000    8.875000   19.525000
Ar   26.625000    8.875000   23.075000
Ar   26.625000    8.875000   26.625000
Ar   26.625000   12.425000    1.775000
Ar   26.625000   12.425000    5.325000
Ar   26.625000   12.425000    8.875000
Ar   26.625000   12.425000   12.425000
Ar   26.625000   12.425000   15.975000
Ar   26.625000   12.425000   19.525000
Ar   26.625000   12.425000   23.075000
Ar   26.625000   12.425000   26.625000
Ar   26.625000   15.975000    1.775000
Ar   26.625000   15.975000    5.325000
Ar   26.625000   15.975000    8.875000
Ar   26.625000   15.975000   12.425000
Ar   26.625000   15.975000   15.975000
Ar   26.625000   15.975000   19.525000
Ar   26.625000   15.975000   23.075000
Ar   26.625000   15.975000   26.625000
Ar   26.625000   19.525000    1.775000
Ar   26.625000   19.525000    5.325000
Ar   26.625000   19.525000    8.875000
Ar   26.625000   19.525000   12.425000
Ar   26.625000   19.525000   15.975000
Ar   26.625000   19.525000   19.525000
Ar   26.625000   19.525000   23.075000
Ar   26.625000   19.525000   26.625000
Ar   26.625000   23.075000    1.775000
Ar   26.625000   23.075000    5.325000
Ar   26.625000   23.075000    8.875000
Ar   26.625000   23.075000   12.425000
Ar   26.625000   23.075000   15.975000
Ar   26.625000   23.075000   19.525000
Ar   26.625000   23.075000   23.075000
Ar   26.625000   23.075000   26.625000
Ar   26.625000   26.625000    1.775000
Ar   26.625000   26.625000    5.325000
Ar   26.625000   26.625000    8.875000
Ar   26.625000   26.625000   12.425000
Ar   26.625000   26.625000   15.975000
Ar   26.625000   26.625000   19.525000
Ar   26.625000   26.625000   23.075000
Ar   26.625000   26.625000   26.625000
512 
Step 100 , box:   28.400    28.400    28.400
Ar    1.754850    1.774640    1.756973
Ar    1.785742    1.767020    5.306618
Ar    1.786893    1.784102    8.889659
Ar    1.781219    1.769613   12.422147
Ar    1.780123    1.764845   15.984147
Ar    1.771159    1.772404   19.539389
Ar    1.790261    1.786873   23.082348
Ar    1.767112    1.761627   26.618415
Ar    1.767950    5.322714    1.770848
Ar    1.783570    5.309467    5.328441
Ar    1.772217    5.342329    8.877642
Ar    1.761925    5.317688   12.417050
Ar    1.759639    5.330058   15.964994
Ar    1.776669    5.332148   19.525816
Ar    1.759993    5.321930   23.060597
Ar    1.761337    5.309959   26.627227
Ar    1.786827    8.865251    1.764475
Ar    1.772866    8.871615    5.308756
Ar    1.776867    8.888290    8.859856
Ar    1.778948    8.868352   12.417869
Ar    1.786086    8.873580   15.957573
Ar    1.788806    8.881500   19.520987
Ar    1.765802    8.866669   23.055208
Ar    1.785647    8.862011   26.609923
Ar    1.791158   12.413972    1.763050
Ar    1.778744   12.422521    5.308610
Ar    1.766943   12.426955    8.856674
Ar    1.780559   12.412285   12.429312
Ar    1.778917   12.438853   15.955926
Ar    1.775015   12.438885   19.507178
Ar    1.760735   12.405253   23.068570
Ar    1.757190   12.428312   26.637817
Ar    1.779543   15.958998    1.777971
Ar    1.792190   15.988592    5.322556
Ar    1.762345   15.988180    8.864112
Ar    1.755409   15.954383   12.421311
Ar    1.776964   15.989353   15.990392
Ar    1.791419   15.966911   19.524944
Ar    1.766518   15.959911   23.090329
Ar    1.757351   15.966125   26.640618
Ar    1.781740   19.524724    1.791283
Ar    1.779247   19.536697    5.325978
Ar    1.778387   19.523602    8.874790
Ar    1.769689   19.520963   12.421731
Ar    1.760668   19.545489   15.981540
Ar    1.783791   19.506548   19.523135
Ar    1.768081   19.539491   23.072048
Ar    1.764997   19.522213   26.611651
Ar    1.777918   23.081799    1.791991
Ar    1.774943   23.081118    5.313624
Ar    1.785831   23.064132    8.889433
Ar    1.764163   23.084078   12.421876
Ar    1.790033   23.091049   15.980593
Ar    1.789288   23.086740   19.523519
Ar    1.787785   23.078744   23.057241
Ar    1.772606   23.083212   26.621940
Ar    1.790080   26.622085    1.769919
Ar    1.781642   26.614401    5.341927
Ar    1.788326   26.608176    8.877383
Ar    1.770189   26.624650   12.414682
Ar    1.788805   26.637334   15.970718
Ar    1.765610   26.620392   19.543449
Ar    1.777127   26.619207   23.095772
Ar    1.765670   26.638983   26.638185
Ar    5.320012    1.753827    1.771899
Ar    5.318568    1.766089    5.331484
Ar    5.319355    1.788442    8.867094
Ar    5.310913    1.781414   12.441055
Ar    5.310856    1.767064   15.970885
Ar    5.342079    1.781804   19.539363
Ar    5.333137    1.769126   23.077533
Ar    5.326518    1.766323   26.627162
Ar    5.318714    5.306152    1.775442
Ar    5.335362    5.316732    5.330413
Ar    5.311833    5.321144    8.880117
Ar    5.335184    5.337716   12.416692
Ar    5.336086    5.316928   15.982191
Ar    5.323456    5.325608   19.533288
Ar    5.337195    5.307575   23.074790
Ar    5.323175    5.330396   26.619404
Ar    5.325977    8.864705    1.753959
Ar    5.330265    8.868820    5.310527
Ar    5.345076    8.860303    8.888531
Ar    5.311492    8.885527   12.441193
Ar    5.311626    8.866850   15.988520
Ar    5.343887    8.864157   19.535570
Ar    5.310930    8.876831   23.059962
Ar    5.311711    8.872622   26.606909
Ar    5.342621   12.427004    1.767388
Ar    5.342879   12.438008    5.310400
Ar    5.306530   12.439627    8.866412
Ar    5.342212   12.443767   12.405074
Ar    5.321106   12.429901   15.964499
Ar    5.303968   12.409851   19.527746
Ar    5.331153   12.429233   23.057970
Ar    5.338587   12.430895   26.616323
Ar    5.341182   15.983035    1.762174
Ar    5.307268   15.990305    5.337622
Ar    5.338743   15.966341    8.883311
Ar    5.322437   15.978825   12.423436
Ar    5.326291   15.975845   15.972983
Ar    5.323954   15.973069   19.541119
Ar    5.315847   15.972466   23.071252
Ar    5.331778   15.975749   26.622864
Ar    5.306615   19.543621    1.772377
Ar    5.308303   19.545769    5.327755
Ar    5.332165   19.519697    8.887711
Ar    5.314200   19.535317   12.421644
Ar    5.304097   19.534678   15.977701
Ar    5.315495   19.531295   19.522450
Ar    5.326231   19.507509   23.077859
Ar    5.318571   19.523076   26.626608
Ar    5.338507   23.094583    1.791580
Ar    5.318836   23.093955    5.325116
Ar    5.308696   23.068868    8.870725
Ar    5.308133   23.088608   12.428850
Ar    5.313306   23.077827   15.963744
Ar    5.315675   23.069388   19.531992
Ar    5.312193   23.088247   23.070908
Ar    5.328278   23.068562   26.618605
Ar    5.313455   26.620539    1.780230
Ar    5.341293   26.617698    5.329766
Ar    5.328372   26.629534    8.872318
Ar    5.318006   26.635893   12.437005
Ar    5.309846   26.633089   15.974784
Ar    5.311540   26.641829   19.522035
Ar    5.313884   26.640487   23.091111
Ar    5.318287   26.605990   26.615502
Ar    8.862657    1.772584    1.789179
Ar    8.855378    1.787669    5.329082
Ar    8.880899    1.771558    8.889253
Ar    8.862285    1.760943   12.410311
Ar    8.871066    1.777859   15.972181
Ar    8.887246    1.760430   19.525815
Ar    8.888862    1.770718   23.064131
Ar    8.868174    1.762224   26.610129
Ar    8.870734    5.307321    1.787189
Ar    8.891338    5.330977    5.327508
Ar    8.891124    5.312527    8.865507
Ar    8.887084    5.319919   12.423390
Ar    8.878842    5.335898   15.973614
Ar    8.877848    5.339705   19.517831
Ar    8.862125    5.334335   23.080392
Ar    8.854610    5.311728   26.645986
Ar    8.887843    8.854815    1.766442
Ar    8.864900    8.864420    5.331741
Ar    8.890819    8.860212    8.871326
Ar    8.883593    8.890549   12.434654
Ar    8.876973    8.883384   15.988102
Ar    8.872148    8.876415   19.536698
Ar    8.879765    8.867580   23.082021
Ar    8.877286    8.856573   26.631619
Ar    8.887585   12.416621    1.777809
Ar    8.886614   12.416342    5.326464
Ar    8.864722   12.435613    8.895887
Ar    8.893263   12.423736   12.439802
Ar    8.890892   12.427176   15.980279
Ar    8.855230   12.426171   19.514527
Ar    8.875331   12.409798   23.075415
Ar    8.885985   12.438278   26.637952
Ar    8.891002   15.986424    1.769595
Ar    8.854644   15.985051    5.337793
Ar    8.878106   15.981673    8.874567
Ar    8.872998   15.991433   12.431844
Ar    8.870583   15.979908   15.959020
Ar    8.870172   15.957275   19.517219
Ar    8.878204   15.988809   23.067386
Ar    8.886854   15.981574   26.615205
Ar    8.857533   19.526315    1.770016
Ar    8.873811   19.539917    5.324605
Ar    8.884711   19.534497    8.889010
Ar    8.871301   19.521243   12.436957
Ar    8.870516   19.530035   15.992556
Ar    8.878412   19.507763   19.526325
Ar    8.873043   19.535977   23.078971
Ar    8.856034   19.532699   26.621382
Ar    8.889281   23.084103    1.787116
Ar    8.873190   23.061605    5.333669
Ar    8.853723   23.085390    8.875467
Ar    8.855681   23.075266   12.443896
Ar    8.854462   23.074333   15.974881
Ar    8.874919   23.073630   19.517172
Ar    8.889454   23.081515   23.085791
Ar    8.857340   23.071027   26.615343
Ar    8.858517   26.608348    1.774299
Ar    8.883313   26.608408    5.324524
Ar    8.870919   26.622422    8.860711
Ar    8.883264   26.630861   12.405075
Ar    8.862594   26.622091   15.968895
Ar    8.880685   26.613498   19.514510
Ar    8.855952   26.627878   23.090433
Ar    8.880959   26.605356   26.639834
Ar   12.424462    1.767421    1.781363
Ar   12.423499    1.771019    5.308363
Ar   12.440156    1.778418    8.873428
Ar   12.416051    1.791752   12.421772
Ar   12.438200    1.763035   15.956518
Ar   12.429817    1.790653   19.505324
Ar   12.410370    1.784354   23.066502
Ar   12.437433    1.779819   26.630887
Ar   12.412994    5.328896    1.771111
Ar   12.436783    5.330676    5.317952
Ar   12.428746    5.320880    8.863194
Ar   12.421006    5.319553   12.405631
Ar   12.438692    5.320340   15.960127
Ar   12.431566    5.320214   19.519992
Ar   12.427960    5.337429   23.056454
Ar   12.409994    5.323231   26.611231
Ar   12.428938    8.886003    1.784760
Ar   12.415383    8.889668    5.343681
Ar   12.446600    8.894525    8.882333
Ar   12.432964    8.890933   12.439462
Ar   12.413798    8.888021   15.996936
Ar   12.438372    8.884745   19.543898
Ar   12.418811    8.860217   23.078654
Ar   12.415184    8.855180   26.618071
Ar   12.420427   12.432014    1.773622
Ar   12.425752   12.417818    5.339184
Ar   12.410343   12.442605    8.868762
Ar   12.432128   12.420436   12.437909
Ar   12.423341   12.426262   15.989103
Ar   12.413588   12.444184   19.510205
Ar   12.428551   12.440928   23.082131
Ar   12.418133   12.411844   26.628062
Ar   12.439643   15.969607    1.772416
Ar   12.418700   15.973256    5.327421
Ar   12.413507   15.961905    8.872977
Ar   12.440968   15.987427   12.424090
Ar   12.433086   15.992987   15.958770
Ar   12.414857   15.991108   19.523670
Ar   12.429160   15.989952   23.059829
Ar   12.414001   15.963547   26.625691
Ar   12.434201   19.528609    1.772807
Ar   12.419569   19.524407    5.322148
Ar   12.411566   19.510909    8.884521
Ar   12.441268   19.505728   12.438838
Ar   12.433538   19.529045   15.986776
Ar   12.416571   19.511657   19.537646
Ar   12.431021   19.542440   23.069773
Ar   12.414703   19.539241   26.611492
Ar   12.431027   23.057877    1.764898
Ar   12.407631   23.066794    5.324104
Ar   12.419139   23.082996    8.880808
Ar   12.419823   23.055140   12.442857
Ar   12.402887   23.085589   15.991540
Ar   12.441274   23.061304   19.520279
Ar   12.437151   23.082817   23.077282
Ar   12.404253   23.085193   26.636689
Ar   12.410700   26.621628    1.759508
Ar   12.423645   26.618021    5.340662
Ar   12.408489   26.637744    8.872747
Ar   12.414950   26.638726   12.440652
Ar   12.408546   26.620866   15.982256
Ar   12.424396   26.611103   19.517854