512 
Step 0 , box:   28.400    28.400    28.400
Ar    1.775000    1.775000    1.775000
Ar    1.775000    1.775000    5.325000
Ar    1.775000    1.775000    8.875000
Ar    1.775000    1.775000   12.425000
Ar    1.775000    1.775000   15.975000
Ar    1.775000    1.775000   19.525000
Ar    1.775000    1.775000   23.075000
Ar    1.775000    1.775000   26.625000
Ar    1.775000    5.325000    1.775000
Ar    1.775000    5.325000    5.325000
Ar    1.775000    5.325000    8.875000
Ar    1.775000    5.325000   12.425000
Ar    1.775000    5.325000   15.975000
Ar    1.775000    5.325000   19.525000
Ar    1.775000    5.325000   23.075000
Ar    1.775000    5.325000   26.625000
Ar    1.775000    8.875000    1.775000
Ar    1.775000    8.875000    5.325000
Ar    1.775000    8.875000    8.875000
Ar    1.775000    8.875000   12.425000
Ar    1.775000    8.875000   15.975000
Ar    1.775000    8.875000   19.525000
Ar    1.775000    8.875000   23.075000
Ar    1.775000    8.875000   26.625000
Ar    1.775000   12.425000    1.775000
Ar    1.775000   12.425000    5.325000
Ar    1.775000   12.425000    8.875000
Ar    1.775000   12.425000   12.425000
Ar    1.775000   12.425000   15.975000
Ar    1.775000   12.425000   19.525000
Ar    1.775000   12.425000   23.075000
Ar    1.775000   12.425000   26.625000
Ar    1.775000   15.975000    1.775000
Ar    1.775000   15.975000    5.325000
Ar    1.775000   15.975000    8.875000
Ar    1.775000   15.975000   12.425000
Ar    1.775000   15.975000   15.975000
Ar    1.775000   15.975000   19.525000
Ar    1.775000   15.975000   23.075000
Ar    1.775000   15.975000   26.625000
Ar    1.775000   19.525000    1.775000
Ar    1.775000   19.525000    5.325000
Ar    1.775000   19.525000    8.875000
Ar    1.775000   19.525000   12.425000
Ar    1.775000   19.525000   15.975000
Ar    1.775000   19.525000   19.525000
Ar    1.775000   19.525000   23.075000
Ar    1.775000   19.525000   26.625000
Ar    1.775000   23.075000    1.775000
Ar    1.775000   23.075000    5.325000
Ar    1.775000   23.075000    8.875000
Ar    1.775000   23.075000   12.425000
Ar    1.775000   23.075000   15.975000
Ar    1.775000   23.075000   19.525000
Ar    1.775000   23.075000   23.075000
Ar    1.775000   23.075000   26.625000
Ar    1.775000   26.625000    1.775000
Ar    1.775000   26.625000    5.325000
Ar    1.775000   26.625000    8.875000
Ar    1.775000   26.625000   12.425000
Ar    1.775000   26.625000   15.975000
Ar    1.775000   26.625000   19.525000
Ar    1.775000   26.625000   23.075000
Ar    1.775000   26.625000   26.625000
Ar    5.325000    1.775000    1.775000
Ar    5.325000    1.775000    5.325000
Ar    5.325000    1.775000    8.875000
Ar    5.325000    1.775000   12.425000
Ar    5.325000    1.775000   15.975000
Ar    5.325000    1.775000   19.525000
Ar    5.325000    1.775000   23.075000
Ar    5.325000    1.775000   26.625000
Ar    5.325000    5.325000    1.775000
Ar    5.325000    5.325000    5.325000
Ar    5.325000    5.325000    8.875000
Ar    5.325000    5.325000   12.425000
Ar    5.325000    5.325000   15.975000
Ar    5.325000    5.325000   19.525000
Ar    5.325000    5.325000   23.075000
Ar    5.325000    5.325000   26.625000
Ar    5.325000    8.875000    1.775000
Ar    5.325000    8.875000    5.325000
Ar    5.325000    8.875000    8.875000
Ar    5.325000    8.875000   12.425000
Ar    5.325000    8.875000   15.975000
Ar    5.325000    8.875000   19.525000
Ar    5.325000    8.875000   23.075000
Ar    5.325000    8.875000   26.625000
Ar    5.325000   12.425000    1.775000
Ar    5.325000   12.425000    5.325000
Ar    5.325000   12.425000    8.875000
Ar    5.325000   12.425000   12.425000
Ar    5.325000   12.425000   15.975000
Ar    5.325000   12.425000   19.525000
Ar    5.325000   12.425000   23.075000
Ar    5.325000   12.425000   26.625000
Ar    5.325000   15.975000    1.775000
Ar    5.325000   15.975000    5.325000
Ar    5.325000   15.975000    8.875000
Ar    5.325000   15.975000   12.425000
Ar    5.325000   15.975000   15.975000
Ar    5.325000   15.975000   19.525000
Ar    5.325000   15.975000   23.075000
Ar    5.325000   15.975000   26.625000
Ar    5.325000   19.525000    1.775000
Ar    5.325000   19.525000    5.325000
Ar    5.325000   19.525000    8.875000
Ar    5.325000   19.525000   12.425000
Ar    5.325000   19.525000   15.975000
Ar    5.325000   19.525000   19.525000
Ar    5.325000   19.525000   23.075000
Ar    5.325000   19.525000   26.625000
Ar    5.325000   23.075000    1.775000
Ar    5.325000   23.075000    5.325000
Ar    5.325000   23.075000    8.875000
Ar    5.325000   23.075000   12.425000
Ar    5.325000   23.075000   15.975000
Ar    5.325000   23.075000   19.525000
Ar    5.325000   23.075000   23.075000
Ar    5.325000   23.075000   26.625000
Ar    5.325000   26.625000    1.775000
Ar    5.325000   26.625000    5.325000
Ar    5.325000   26.625000    8.875000
Ar    5.325000   26.625000   12.425000
Ar    5.325000   26.625000   15.975000
Ar    5.325000   26.625000   19.525000
Ar    5.325000   26.625000   23.075000
Ar    5.325000   26.625000   26.625000
Ar    8.875000    1.775000    1.775000
Ar    8.875000    1.775000    5.325000
Ar    8.875000    1.775000    8.875000
Ar    8.875000    1.775000   12.425000
Ar    8.875000    1.775000   15.975000
Ar    8.875000    1.775000   19.525000
Ar    8.875000    1.775000   23.075000
Ar    8.875000    1.775000   26.625000
Ar    8.875000    5.325000    1.775000
Ar    8.875000    5.325000    5.325000
Ar    8.875000    5.325000    8.875000
Ar    8.875000    5.325000   12.425000
Ar    8.875000    5.325000   15.975000
Ar    8.875000    5.325000   19.525000
Ar    8.875000    5.325000   23.075000
Ar    8.875000    5.325000   26.625000
Ar    8.875000    8.875000    1.775000
Ar    8.875000    8.875000    5.325000
Ar    8.875000    8.875000    8.875000
Ar    8.875000    8.875000   12.425000
Ar    8.875000    8.875000   15.975000
Ar    8.875000    8.875000   19.525000
Ar    8.875000    8.875000   23.075000
Ar    8.875000    8.875000   26.625000
Ar    8.875000   12.425000    1.775000
Ar    8.875000   12.425000    5.325000
Ar    8.875000   12.425000    8.875000
Ar    8.875000   12.425000   12.425000
Ar    8.875000   12.425000   15.975000
Ar    8.875000   12.425000   19.525000
Ar    8.875000   12.425000   23.075000
Ar    8.875000   12.425000   26.625000
Ar    8.875000   15.975000    1.775000
Ar    8.875000   15.975000    5.325000
Ar    8.875000   15.975000    8.875000
Ar    8.875000   15.975000   12.425000
Ar    8.875000   15.975000   15.975000
Ar    8.875000   15.975000   19.525000
Ar    8.875000   15.975000   23.075000
Ar    8.875000   15.975000   26.625000
Ar    8.875000   19.525000    1.775000
Ar    8.875000   19.525000    5.325000
Ar    8.875000   19.525000    8.875000
Ar    8.875000   19.525000   12.425000
Ar    8.875000   19.525000   15.975000
Ar    8.875000   19.525000   19.525000
Ar    8.875000   19.525000   23.075000
Ar    8.875000   19.525000   26.625000
Ar    8.875000   23.075000    1.775000
Ar    8.875000   23.075000    5.325000
Ar    8.875000   23.075000    8.875000
Ar    8.875000   23.075000   12.425000
Ar    8.875000   23.075000   15.975000
Ar    8.875000   23.075000   19.525000
Ar    8.875000   23.075000   23.075000
Ar    8.875000   23.075000   26.625000
Ar    8.875000   26.625000    1.775000
Ar    8.875000   26.625000    5.325000
Ar    8.875000   26.625000    8.875000
Ar    8.875000   26.625000   12.425000
Ar    8.875000   26.625000   15.975000
Ar    8.875000   26.625000   19.525000
Ar    8.875000   26.625000   23.075000
Ar    8.875000   26.625000   26.625000
Ar   12.425000    1.775000    1.775000
Ar   12.425000    1.775000    5.325000
Ar   12.425000    1.775000    8.875000
Ar   12.425000    1.775000   12.425000
Ar   12.425000    1.775000   15.975000
Ar   12.425000    1.775000   19.525000
Ar   12.425000    1.775000   23.075000
Ar   12.425000    1.775000   26.625000
Ar   12.425000    5.325000    1.775000
Ar   12.425000    5.325000    5.325000
Ar   12.425000    5.325000    8.875000
Ar   12.425000    5.325000   12.425000
Ar   12.425000    5.325000   15.975000
Ar   12.425000    5.325000   19.525000
Ar   12.425000    5.325000   23.075000
Ar   12.425000    5.325000   26.625000
Ar   12.425000    8.875000    1.775000
Ar   12.425000    8.875000    5.325000
Ar   12.425000    8.875000    8.875000
Ar   12.425000    8.875000   12.425000
Ar   12.425000    8.875000   15.975000
Ar   12.425000    8.875000   19.525000
Ar   12.425000    8.875000   23.075000
Ar   12.425000    8.875000   26.625000
Ar   12.425000   12.425000    1.775000
Ar   12.425000   12.425000    5.325000
Ar   12.425000   12.425000    8.875000
Ar   12.425000   12.425000   12.425000
Ar   12.425000   12.425000   15.975000
Ar   12.425000   12.425000   19.525000
Ar   12.425000   12.425000   23.075000
Ar   12.425000   12.425000   26.625000
Ar   12.425000   15.975000    1.775000
Ar   12.425000   15.975000    5.325000
Ar   12.425000   15.975000    8.875000
Ar   12.425000   15.975000   12.425000
Ar   12.425000   15.975000   15.975000
Ar   12.425000   15.975000   19.525000
Ar   12.425000   15.975000   23.075000
Ar   12.425000   15.975000   26.625000
Ar   12.425000   19.525000    1.775000
Ar   12.425000   19.525000    5.325000
Ar   12.425000   19.525000    8.875000
Ar   12.425000   19.525000   12.425000
Ar   12.425000   19.525000   15.975000
Ar   12.425000   19.525000   19.525000
Ar   12.425000   19.525000   23.075000
Ar   12.425000   19.525000   26.625000
Ar   12.425000   23.075000    1.775000
Ar   12.425000   23.075000    5.325000
Ar   12.425000   23.075000    8.875000
Ar   12.425000   23.075000   12.425000
Ar   12.425000   23.075000   15.975000
Ar   12.425000   23.075000   19.525000
Ar   12.425000   23.075000   23.075000
Ar   12.425000   23.075000   26.625000
Ar   12.425000   26.625000    1.775000
Ar   12.425000   26.625000    5.325000
Ar   12.425000   26.625000    8.875000
Ar   12.425000   26.625000   12.425000
Ar   12.425000   26.625000   15.975000
Ar   12.425000   26.625000   19.525000
Ar   12.425000   26.625000   23.075000
Ar   12.425000   26.625000   26.625000
Ar   15.975000    1.775000    1.775000
Ar   15.975000    1.775000    5.325000
Ar   15.975000    1.775000    8.875000
Ar   15.975000    1.775000   12.425000
Ar   15.975000    1.775000   15.975000
Ar   15.975000    1.775000   19.525000
Ar   15.975000    1.775000   23.075000
Ar   15.975000    1.775000   26.625000
Ar   15.975000    5.325000    1.775000
Ar   15.975000    5.325000    5.325000
Ar   15.975000    5.325000    8.875000
Ar   15.975000    5.325000   12.425000
Ar   15.975000    5.325000   15.975000
Ar   15.975000    5.325000   19.525000
Ar   15.975000    5.325000   23.075000
Ar   15.975000    5.325000   26.625000
Ar   15.975000    8.875000    1.775000
Ar   15.975000    8.875000    5.325000
Ar   15.975000    8.875000    8.875000
Ar   15.975000    8.875000   12.425000
Ar   15.975000    8.875000   15.975000
Ar   15.975000    8.875000   19.525000
Ar   15.975000    8.875000   23.075000
Ar   15.975000    8.875000   26.625000
Ar   15.975000   12.425000    1.775000
Ar   15.975000   12.425000    5.325000
Ar   15.975000   12.425000    8.875000
Ar   15.975000   12.425000   12.425000
Ar   15.975000   12.425000   15.975000
Ar   15.975000   12.425000   19.525000
Ar   15.975000   12.425000   23.075000
Ar   15.975000   12.425000   26.625000
Ar   15.975000   15.975000    1.775000
Ar   15.975000   15.975000    5.325000
Ar   15.975000   15.975000    8.875000
Ar   15.975000   15.975000   12.425000
Ar   15.975000   15.975000   15.975000
Ar   15.975000   15.975000   19.525000
Ar   15.975000   15.975000   23.075000
Ar   15.975000   15.975000   26.625000
Ar   15.975000   19.525000    1.775000
Ar   15.975000   19.525000    5.325000
Ar   15.975000   19.525000    8.875000
Ar   15.975000   19.525000   12.425000
Ar   15.975000   19.525000   15.975000
Ar   15.975000   19.525000   19.525000
Ar   15.975000   19.525000   23.075000
Ar   15.975000   19.525000   26.625000
Ar   15.975000   23.075000    1.775000
Ar   15.975000   23.075000    5.325000
Ar   15.975000   23.075000    8.875000
Ar   15.975000   23.075000   12.425000
Ar   15.975000   23.075000   15.975000
Ar   15.975000   23.075000   19.525000
Ar   15.975000   23.075000   23.075000
Ar   15.975000   23.075000   26.625000
Ar   15.975000   26.625000    1.775000
Ar   15.975000   26.625000    5.325000
Ar   15.975000   26.625000    8.875000
Ar   15.975000   26.625000   12.425000
Ar   15.975000   26.625000   15.975000
Ar   15.975000   26.625000   19.525000
Ar   15.975000   26.625000   23.075000
Ar   15.975000   26.625000   26.625000
Ar   19.525000    1.775000    1.775000
Ar   19.525000    1.775000    5.325000
Ar   19.525000    1.775000    8.875000
Ar   19.525000    1.775000   12.425000
Ar   19.525000    1.775000   15.975000
Ar   19.525000    1.775000   19.525000
Ar   19.525000    1.775000   23.075000
Ar   19.525000    1.775000   26.625000
Ar   19.525000    5.325000    1.775000
Ar   19.525000    5.325000    5.325000
Ar   19.525000    5.325000    8.875000
Ar   19.525000    5.325000   12.425000
Ar   19.525000    5.325000   15.975000
Ar   19.525000    5.325000   19.525000
Ar   19.525000    5.325000   23.075000
Ar   19.525000    5.325000   26.625000
Ar   19.525000    8.875000    1.775000
Ar   19.525000    8.875000    5.325000
Ar   19.525000    8.875000    8.875000
Ar   19.525000    8.875000   12.425000
Ar   19.525000    8.875000   15.975000
Ar   19.525000    8.875000   19.525000
Ar   19.525000    8.875000   23.075000
Ar   19.525000    8.875000   26.625000
Ar   19.525000   12.425000    1.775000
Ar   19.525000   12.425000    5.325000
Ar   19.525000   12.425000    8.875000
Ar   19.525000   12.425000   12.425000
Ar   19.525000   12.425000   15.975000
Ar   19.525000   12.425000   19.525000
Ar   19.525000   12.425000   23.075000
Ar   19.525000   12.425000   26.625000
Ar   19.525000   15.975000    1.775000
Ar   19.525000   15.975000    5.325000
Ar   19.525000   15.975000    8.875000
Ar   19.525000   15.975000   12.425000
Ar   19.525000   15.975000   15.975000
Ar   19.525000   15.975000   19.525000
Ar   19.525000   15.975000   23.075000
Ar   19.525000   15.975000   26.625000
Ar   19.525000   19.525000    1.775000
Ar   19.525000   19.525000    5.325000
Ar   19.525000   19.525000    8.875000
Ar   19.525000   19.525000   12.425000
Ar   19.525000   19.525000   15.975000
Ar   19.525000   19.525000   19.525000
Ar   19.525000   19.525000   23.075000
Ar   19.525000   19.525000   26.625000
Ar   19.525000   23.075000    1.775000
Ar   19.525000   23.075000    5.325000
Ar   19.525000   23.075000    8.875000
Ar   19.525000   23.075000   12.425000
Ar   19.525000   23.075000   15.975000
Ar   19.525000   23.075000   19.525000
Ar   19.525000   23.075000   23.075000
Ar   19.525000   23.075000   26.625000
Ar   19.525000   26.625000    1.775000
Ar   19.525000   26.625000    5.325000
Ar   19.525000   26.625000    8.875000
Ar   19.525000   26.625000   12.425000
Ar   19.525000   26.625000   15.975000
Ar   19.525000   26.625000   19.525000
Ar   19.525000   26.625000   23.075000
Ar   19.525000   26.625000   26.625000
Ar   23.075000    1.775000    1.775000
Ar   23.075000    1.775000    5.325000
Ar   23.075000    1.775000    8.875000
Ar   23.075000    1.775000   12.425000
Ar   23.075000    1.775000   15.975000
Ar   23.075000    1.775000   19.525000
Ar   23.075000    1.775000   23.075000
Ar   23.075000    1.775000   26.625000
Ar   23.075000    5.325000    1.775000
Ar   23.075000    5.325000    5.325000
Ar   23.075000    5.325000    8.875000
Ar   23.075000    5.325000   12.425000
Ar   23.075000    5.325000   15.975000
Ar   23.075000    5.325000   19.525000
Ar   23.075000    5.325000   23.075000
Ar   23.075000    5.325000   26.625000
Ar   23.075000    8.875000    1.775000
Ar   23.075000    8.875000    5.325000
Ar   23.075000    8.875000    8.875000
Ar   23.075000    8.875000   12.425000
Ar   23.075000    8.875000   15.975000
Ar   23.075000    8.875000   19.525000
Ar   23.075000    8.875000   23.075000
Ar   23.075000    8.875000   26.625000
Ar   23.075000   12.425000    1.775000
Ar   23.075000   12.425000    5.325000
Ar   23.075000   12.425000    8.875000
Ar   23.075000   12.425000   12.425000
Ar   23.075000   12.425000   15.975000
Ar   23.075000   12.425000   19.525000
Ar   23.075000   12.425000   23.075000
Ar   23.075000   12.425000   26.625000
Ar   23.075000   15.975000    1.775000
Ar   23.075000   15.975000    5.325000
Ar   23.075000   15.975000    8.875000
Ar   23.075000   15.975000   12.425000
Ar   23.075000   15.975000   15.975000
Ar   23.075000   15.975000   19.525000
Ar   23.075000   15.975000   23.075000
Ar   23.075000   15.975000   26.625000
Ar   23.075000   19.525000    1.775000
Ar   23.075000   19.525000    5.325000
Ar   23.075000   19.525000    8.875000
Ar   23.075000   19.525000   12.425000
Ar   23.075000   19.525000   15.975000
Ar   23.075000   19.525000   19.525000
Ar   23.075000   19.525000   23.075000
Ar   23.075000   19.525000   26.625000
Ar   23.075000   23.075000    1.775000
Ar   23.075000   23.075000    5.325000
Ar   23.075000   23.075000    8.875000
Ar   23.075000   23.075000   12.425000
Ar   23.075000   23.075000   15.975000
Ar   23.075000   23.075000   19.525000
Ar   23.075000   23.075000   23.075000
Ar   23.075000   23.075000   26.625000
Ar   23.075000   26.625000    1.775000
Ar   23.075000   26.625000    5.325000
Ar   23.075000   26.625000    8.875000
Ar   23.075000   26.625000   12.425000
Ar   23.075000   26.625000   15.975000
Ar   23.075000   26.625000   19.525000
Ar   23.075000   26.625000   23.075000
Ar   23.075000   26.625000   26.625000
Ar   26.625000    1.775000    1.775000
Ar   26.625000    1.775000    5.325000
Ar   26.625000    1.775000    8.875000
Ar   26.625000    1.775000   12.425000
Ar   26.625000    1.775000   15.975000
Ar   26.625000    1.775000   19.525000
Ar   26.625000    1.775000   23.075000
Ar   26.625000    1.775000   26.625000
Ar   26.625000    5.325000    1.775000
Ar   26.625000    5.325000    5.325000
Ar   26.625000    5.325000    8.875000
Ar   26.625000    5.325000   12.425000
Ar   26.625000    5.325000   15.975000
Ar   26.625000    5.325000   19.525000
Ar   26.625000    5.325000   23.075000
Ar   26.625000    5.325000   26.625000
Ar   26.625000    8.875000    1.775000
Ar   26.625000    8.875000    5.325000
Ar   26.625000    8.875000    8.875000
Ar   26.625000    8.875000   12.425000
Ar   26.625000    8.875000   15.975000
Ar   26.625000    8.875000   19.525000
Ar   26.625000    8.875000   23.075000
Ar   26.625000    8.875000   26.625000
Ar   26.625000   12.425000    1.775000
Ar   26.625000   12.425000    5.325000
Ar   26.625000   12.425000    8.875000
Ar   26.625000   12.425000   12.425000
Ar   26.625000   12.425000   15.975000
Ar   26.625000   12.425000   19.525000
Ar   26.625000   12.425000   23.075000
Ar   26.625000   12.425000   26.625000
Ar   26.625000   15.975000    1.775000
Ar   26.625000   15.975000    5.325000
Ar   26.625000   15.975000    8.875000
Ar   26.625000   15.975000   12.425000
Ar   26.625000   15.975000   15.975000
Ar   26.625000   15.975000   19.525000
Ar   26.625000   15.975000   23.075000
Ar   26.625000   15.975000   26.625000
Ar   26.625000   19.525000    1.775000
Ar   26.625000   19.525000    5.325000
Ar   26.625000   19.525000    8.875000
Ar   26.625000   19.525000   12.425000
Ar   26.625000   19.525000   15.975000
Ar   26.625000   19.525000   19.525000
Ar   26.625000   19.525000   23.075000
Ar   26.625000   19.525000   26.625000
Ar   26.625000   23.075000    1.775000
Ar   26.625000   23.075000    5.325000
Ar   26.625000   23.075000    8.875000
Ar   26.625000   23.075000   12.425000
Ar   26.625000   23.075000   15.975000
Ar   26.625000   23.075000   19.525000
Ar   26.625000   23.075000   23.075000
Ar   26.625000   23.075000   26.625000
Ar   26.625000   26.625000    1.775000
Ar   26.625000   26.625000    5.325000
Ar   26.625000   26.625000    8.875000
Ar   26.625000   26.625000   12.425000
Ar   26.625000   26.625000   15.975000
Ar   26.625000   26.625000   19.525000
Ar   26.625000   26.625000   23.075000
Ar   26.625000   26.625000   26.625000
512 
Step 100 , box:   28.400    28.400    28.400
Ar    1.743983    1.779246    1.802348
Ar    1.796256    1.793038    5.283936
Ar    1.813444    1.794232    8.905314
Ar    1.751683    1.762052   12.381422
Ar    1.815895    1.767345   15.992463
Ar    1.788778    1.792712   19.512796
Ar    1.830573    1.798900   23.052442
Ar    1.735477    1.755003   26.624911
Ar    1.781809    5.320083    1.749772
Ar    1.777312    5.297112    5.323532
Ar    1.799813    5.310967    8.875040
Ar    1.799260    5.296367   12.426199
Ar    1.743506    5.395184   15.956712
Ar    1.783385    5.351419   19.551662
Ar    1.742096    5.275611   23.033116
Ar    1.728608    5.362584   26.661563
Ar    1.845165    8.859581    1.752043
Ar    1.743489    8.894367    5.292832
Ar    1.784922    8.903890    8.839067
Ar    1.776662    8.839939   12.419659
Ar    1.845584    8.865022   15.905052
Ar    1.800956    8.845456   19.527884
Ar    1.759684    8.889051   23.025528
Ar    1.805216    8.848939   26.607079
Ar    1.804331   12.436781    1.728042
Ar    1.792437   12.395492    5.357417
Ar    1.765763   12.420548    8.823406
Ar    1.800512   12.411787   12.437673
Ar    1.801673   12.471779   15.939197
Ar    1.743306   12.441506   19.546359
Ar    1.749632   12.446382   23.027882
Ar    1.764728   12.439139   26.614031
Ar    1.793974   15.950461    1.767581
Ar    1.757494   15.973101    5.356322
Ar    1.754878   16.003177    8.893714
Ar    1.739268   15.950915   12.414631
Ar    1.787875   15.984421   16.012987
Ar    1.799054   15.994422   19.505469
Ar    1.768726   15.945849   23.105659
Ar    1.756729   15.961389   26.627025
Ar    1.762534   19.507166    1.808431
Ar    1.807912   19.491021    5.282618
Ar    1.768434   19.509699    8.902246
Ar    1.789370   19.498793   12.410491
Ar    1.753921   19.554330   15.982140
Ar    1.775575   19.497178   19.499510
Ar    1.795477   19.528511   23.113484
Ar    1.732853   19.545309   26.582409
Ar    1.803515   23.061272    1.809291
Ar    1.759731   23.080584    5.258201
Ar    1.787153   23.113275    8.950920
Ar    1.749499   23.044619   12.383863
Ar    1.803542   23.075647   15.985028
Ar    1.823719   23.112699   19.539016
Ar    1.825303   23.063553   23.078918
Ar    1.750912   23.044193   26.608907
Ar    1.813377   26.602177    1.757851
Ar    1.789925   26.601129    5.363749
Ar    1.762422   26.627392    8.866111
Ar    1.791280   26.583915   12.460031
Ar    1.830376   26.675418   15.996940
Ar    1.783275   26.593053   19.535664
Ar    1.786161   26.606889   23.058539
Ar    1.795512   26.622765   26.669689
Ar    5.358837    1.794655    1.762140
Ar    5.301573    1.814615    5.370695
Ar    5.344540    1.764935    8.828362
Ar    5.299757    1.799860   12.485505
Ar    5.333003    1.751569   15.924815
Ar    5.339471    1.741421   19.572395
Ar    5.296475    1.785340   23.057930
Ar    5.349405    1.776414   26.653814
Ar    5.289428    5.345811    1.782247
Ar    5.356679    5.354526    5.308763
Ar    5.277288    5.336044    8.895831
Ar    5.329411    5.372740   12.415106
Ar    5.377873    5.342345   15.990535
Ar    5.337976    5.333130   19.513222
Ar    5.375115    5.333094   23.079540
Ar    5.362442    5.336553   26.638716
Ar    5.307437    8.869512    1.794709
Ar    5.318203    8.875840    5.319386
Ar    5.391488    8.830245    8.891223
Ar    5.299458    8.876836   12.408474
Ar    5.253990    8.852858   15.955020
Ar    5.373469    8.891112   19.548169
Ar    5.290997    8.888197   23.054758
Ar    5.266824    8.848839   26.648503
Ar    5.294866   12.433840    1.753634
Ar    5.327774   12.455537    5.275911
Ar    5.271921   12.459932    8.877572
Ar    5.349816   12.480434   12.391392
Ar    5.290985   12.433539   15.933383
Ar    5.320168   12.430710   19.518606
Ar    5.395832   12.389834   23.025253
Ar    5.317536   12.442836   26.625259
Ar    5.339491   15.967926    1.752768
Ar    5.310037   15.970452    5.350837
Ar    5.361328   15.914239    8.864878
Ar    5.341274   15.988227   12.450907
Ar    5.342393   15.941713   15.964924
Ar    5.297590   15.967007   19.556421
Ar    5.317292   16.007209   23.038769
Ar    5.309247   15.951291   26.684073
Ar    5.340480   19.507334    1.783365
Ar    5.286142   19.517206    5.312320
Ar    5.296671   19.550606    8.891064
Ar    5.349657   19.566697   12.395085
Ar    5.348261   19.538252   16.003377
Ar    5.295027   19.542431   19.514517
Ar    5.324371   19.509939   23.080794
Ar    5.365874   19.504050   26.630491
Ar    5.353862   23.071010    1.802082
Ar    5.303100   23.096365    5.295670
Ar    5.306018   23.068628    8.863043
Ar    5.316435   23.096272   12.456902
Ar    5.295668   23.032422   15.924737
Ar    5.304182   23.045525   19.556227
Ar    5.291527   23.082952   23.077865
Ar    5.303274   23.083104   26.600353
Ar    5.293725   26.619220    1.805681
Ar    5.326233   26.619893    5.339415
Ar    5.297243   26.596576    8.851666
Ar    5.287306   26.655860   12.457983
Ar    5.258837   26.634761   15.979570
Ar    5.281584   26.662027   19.499084
Ar    5.330247   26.593817   23.120483
Ar    5.347356   26.622409   26.581203
Ar    8.866958    1.808847    1.806322
Ar    8.854767    1.785840    5.254782
Ar    8.922844    1.788770    8.925420
Ar    8.868578    1.765060   12.403904
Ar    8.908411    1.782618   15.996971
Ar    8.872999    1.738765   19.512262
Ar    8.943998    1.752719   23.084935
Ar    8.827540    1.778601   26.603059
Ar    8.873221    5.306483    1.760504
Ar    8.920619    5.303378    5.356013
Ar    8.898899    5.336888    8.879522
Ar    8.868661    5.318004   12.435042
Ar    8.820132    5.332147   15.988907
Ar    8.866959    5.343310   19.540530
Ar    8.852696    5.352645   23.083781
Ar    8.823183    5.341488   26.630807
Ar    8.923337    8.883267    1.747210
Ar    8.865470    8.894690    5.371190
Ar    8.888328    8.857179    8.853281
Ar    8.910722    8.899830   12.441598
Ar    8.936248    8.885880   15.969410
Ar    8.844640    8.803719   19.528018
Ar    8.895510    8.887343   23.067837
Ar    8.919689    8.839295   26.662266
Ar    8.889950   12.400048    1.795738
Ar    8.862379   12.437343    5.341310
Ar    8.847936   12.448637    8.901644
Ar    8.910603   12.358456   12.409188
Ar    8.896504   12.432051   16.014611
Ar    8.891565   12.436473   19.546322
Ar    8.880564   12.421718   23.091338
Ar    8.846594   12.451110   26.639559
Ar    8.885335   15.974299    1.750131
Ar    8.888265   15.944995    5.333136
Ar    8.870864   15.951134    8.808257
Ar    8.835497   16.026814   12.456639
Ar    8.873620   15.986024   15.934462
Ar    8.918003   15.965375   19.536362
Ar    8.855293   16.003875   23.059238
Ar    8.859827   15.926315   26.625475
Ar    8.869892   19.461301    1.799658
Ar    8.937027   19.512372    5.325693
Ar    8.907763   19.527243    8.893429
Ar    8.847258   19.500985   12.402337
Ar    8.873615   19.527030   16.006629
Ar    8.908031   19.501037   19.513735
Ar    8.854649   19.500040   23.108155
Ar    8.870198   19.517940   26.632646
Ar    8.900157   23.113244    1.814206
Ar    8.876949   23.084842    5.335762
Ar    8.904847   23.086618    8.850992
Ar    8.840712   23.067049   12.461208
Ar    8.898720   23.086743   15.974316
Ar    8.867770   23.063828   19.510502
Ar    8.902817   23.085310   23.129810
Ar    8.851669   23.074862   26.582763
Ar    8.907034   26.569598    1.746373
Ar    8.868130   26.627418    5.336820
Ar    8.879672   26.604854    8.859943
Ar    8.920373   26.643434   12.401385
Ar    8.885968   26.648668   16.000717
Ar    8.886710   26.611015   19.484294
Ar    8.889122   26.655973   23.084341
Ar    8.869235   26.603309   26.608600
Ar   12.420090    1.761903    1.779462
Ar   12.418887    1.769074    5.287644
Ar   12.446936    1.811926    8.876191
Ar   12.423104    1.775179   12.395416
Ar   12.425544    1.797742   15.958317
Ar   12.447775    1.820627   19.536361
Ar   12.400807    1.787173   23.060873
Ar   12.430122    1.795352   26.580968
Ar   12.421488    5.330464    1.744331
Ar   12.413273    5.288782    5.274345
Ar   12.398569    5.326926    8.851475
Ar   12.451579    5.283352   12.404294
Ar   12.443321    5.309212   15.932635
Ar   12.425348    5.304120   19.503296
Ar   12.464316    5.358179   23.032649
Ar   12.437063    5.313576   26.602722
Ar   12.435307    8.866393    1.810958
Ar   12.411782    8.880676    5.362271
Ar   12.476100    8.877746    8.900646
Ar   12.402380    8.954577   12.472410
Ar   12.404055    8.894009   15.997318
Ar   12.517971    8.908194   19.547543
Ar   12.345801    8.852278   23.126299
Ar   12.409141    8.849290   26.664399
Ar   12.402244   12.433039    1.742044
Ar   12.464169   12.392479    5.370748
Ar   12.369177   12.423964    8.836508
Ar   12.438364   12.344482   12.427097
Ar   12.422528   12.381048   15.994401
Ar   12.361088   12.400903   19.488517
Ar   12.441759   12.496662   23.118210
Ar   12.442842   12.458749   26.616126
Ar   12.468585   15.945876    1.750671
Ar   12.411831   15.985674    5.326759
Ar   12.426172   15.990502    8.839722
Ar   12.410363   16.020344   12.439843
Ar   12.444197   16.027754   15.923959
Ar   12.440867   15.981063   19.558067
Ar   12.413929   15.949606   23.033194
Ar   12.418834   15.932761   26.649441
Ar   12.438725   19.564571    1.800852
Ar   12.402390   19.517698    5.312853
Ar   12.410623   19.557942    8.886150
Ar   12.454285   19.521149   12.428645
Ar   12.400056   19.493801   15.956314
Ar   12.402494   19.511735   19.533261
Ar   12.438137   19.526338   23.079808
Ar   12.413152   19.510046   26.628126
Ar   12.450864   23.034311    1.757682
Ar   12.408956   23.059929    5.372648
Ar   12.401072   23.083298    8.869978
Ar   12.410064   23.086413   12.410602
Ar   12.432975   23.101198   15.997265
Ar   12.445359   23.135423   19.532651
Ar   12.424624   23.113599   23.087424
Ar   12.424381   23.068564   26.654843
Ar   12.415917   26.663298    1.741525
Ar   12.464258   26.638054    5.384555
Ar   12.397484   26.615166    8.827353
Ar   12.367498   26.627255   12.461333
Ar   12.418779   26.629217   15.990363
Ar   12.392840   26.585755   19.501772