512 
Step 0 , box:   28.400    28.400    28.400
Ar    1.775000    1.775000    1.775000
Ar    1.775000    1.775000    5.325000
Ar    1.775000    1.775000    8.875000
Ar    1.775000    1.775000   12.425000
Ar    1.775000    1.775000   15.975000
Ar    1.775000    1.775000   19.525000
Ar    1.775000    1.775000   23.075000
Ar    1.775000    1.775000   26.625000
Ar    1.775000    5.325000    1.775000
Ar    1.775000    5.325000    5.325000
Ar    1.775000    5.325000    8.875000
Ar    1.775000    5.325000   12.425000
Ar    1.775000    5.325000   15.975000
Ar    1.775000    5.325000   19.525000
Ar    1.775000    5.325000   23.075000
Ar    1.775000    5.325000   26.625000
Ar    1.775000    8.875000    1.775000
Ar    1.775000    8.875000    5.325000
Ar    1.775000    8.875000    8.875000
Ar    1.775000    8.875000   12.425000
Ar    1.775000    8.875000   15.975000
Ar    1.775000    8.875000   19.525000
Ar    1.775000    8.875000   23.075000
Ar    1.775000    8.875000   26.625000
Ar    1.775000   12.425000    1.775000
Ar    1.775000   12.425000    5.325000
Ar    1.775000   12.425000    8.875000
Ar    1.775000   12.425000   12.425000
Ar    1.775000   12.425000   15.975000
Ar    1.775000   12.425000   19.525000
Ar    1.775000   12.425000   23.075000
Ar    1.775000   12.425000   26.625000
Ar    1.775000   15.975000    1.775000
Ar    1.775000   15.975000    5.325000
Ar    1.775000   15.975000    8.875000
Ar    1.775000   15.975000   12.425000
Ar    1.775000   15.975000   15.975000
Ar    1.775000   15.975000   19.525000
Ar    1.775000   15.975000   23.075000
Ar    1.775000   15.975000   26.625000
Ar    1.775000   19.525000    1.775000
Ar    1.775000   19.525000    5.325000
Ar    1.775000   19.525000    8.875000
Ar    1.775000   19.525000   12.425000
Ar    1.775000   19.525000   15.975000
Ar    1.775000   19.525000   19.525000
Ar    1.775000   19.525000   23.075000
Ar    1.775000   19.525000   26.625000
Ar    1.775000   23.075000    1.775000
Ar    1.775000   23.075000    5.325000
Ar    1.775000   23.075000    8.875000
Ar    1.775000   23.075000   12.425000
Ar    1.775000   23.075000   15.975000
Ar    1.775000   23.075000   19.525000
Ar    1.775000   23.075000   23.075000
Ar    1.775000   23.075000   26.625000
Ar    1.775000   26.625000    1.775000
Ar    1.775000   26.625000    5.325000
Ar    1.775000   26.625000    8.875000
Ar    1.775000   26.625000   12.425000
Ar    1.775000   26.625000   15.975000
Ar    1.775000   26.625000   19.525000
Ar    1.775000   26.625000   23.075000
Ar    1.775000   26.625000   26.625000
Ar    5.325000    1.775000    1.775000
Ar    5.325000    1.775000    5.325000
Ar    5.325000    1.775000    8.875000
Ar    5.325000    1.775000   12.425000
Ar    5.325000    1.775000   15.975000
Ar    5.325000    1.775000   19.525000
Ar    5.325000    1.775000   23.075000
Ar    5.325000    1.775000   26.625000
Ar    5.325000    5.325000    1.775000
Ar    5.325000    5.325000    5.325000
Ar    5.325000    5.325000    8.875000
Ar    5.325000    5.325000   12.425000
Ar    5.325000    5.325000   15.975000
Ar    5.325000    5.325000   19.525000
Ar    5.325000    5.325000   23.075000
Ar    5.325000    5.325000   26.625000
Ar    5.325000    8.875000    1.775000
Ar    5.325000    8.875000    5.325000
Ar    5.325000    8.875000    8.875000
Ar    5.325000    8.875000   12.425000
Ar    5.325000    8.875000   15.975000
Ar    5.325000    8.875000   19.525000
Ar    5.325000    8.875000   23.075000
Ar    5.325000    8.875000   26.625000
Ar    5.325000   12.425000    1.775000
Ar    5.325000   12.425000    5.325000
Ar    5.325000   12.425000    8.875000
Ar    5.325000   12.425000   12.425000
Ar    5.325000   12.425000   15.975000
Ar    5.325000   12.425000   19.525000
Ar    5.325000   12.425000   23.075000
Ar    5.325000   12.425000   26.625000
Ar    5.325000   15.975000    1.775000
Ar    5.325000   15.975000    5.325000
Ar    5.325000   15.975000    8.875000
Ar    5.325000   15.975000   12.425000
Ar    5.325000   15.975000   15.975000
Ar    5.325000   15.975000   19.525000
Ar    5.325000   15.975000   23.075000
Ar    5.325000   15.975000   26.625000
Ar    5.325000   19.525000    1.775000
Ar    5.325000   19.525000    5.325000
Ar    5.325000   19.525000    8.875000
Ar    5.325000   19.525000   12.425000
Ar    5.325000   19.525000   15.975000
Ar    5.325000   19.525000   19.525000
Ar    5.325000   19.525000   23.075000
Ar    5.325000   19.525000   26.625000
Ar    5.325000   23.075000    1.775000
Ar    5.325000   23.075000    5.325000
Ar    5.325000   23.075000    8.875000
Ar    5.325000   23.075000   12.425000
Ar    5.325000   23.075000   15.975000
Ar    5.325000   23.075000   19.525000
Ar    5.325000   23.075000   23.075000
Ar    5.325000   23.075000   26.625000
Ar    5.325000   26.625000    1.775000
Ar    5.325000   26.625000    5.325000
Ar    5.325000   26.625000    8.875000
Ar    5.325000   26.625000   12.425000
Ar    5.325000   26.625000   15.975000
Ar    5.325000   26.625000   19.525000
Ar    5.325000   26.625000   23.075000
Ar    5.325000   26.625000   26.625000
Ar    8.875000    1.775000    1.775000
Ar    8.875000    1.775000    5.325000
Ar    8.875000    1.775000    8.875000
Ar    8.875000    1.775000   12.425000
Ar    8.875000    1.775000   15.975000
Ar    8.875000    1.775000   19.525000
Ar    8.875000    1.775000   23.075000
Ar    8.875000    1.775000   26.625000
Ar    8.875000    5.325000    1.775000
Ar    8.875000    5.325000    5.325000
Ar    8.875000    5.325000    8.875000
Ar    8.875000    5.325000   12.425000
Ar    8.875000    5.325000   15.975000
Ar    8.875000    5.325000   19.525000
Ar    8.875000    5.325000   23.075000
Ar    8.875000    5.325000   26.625000
Ar    8.875000    8.875000    1.775000
Ar    8.875000    8.875000    5.325000
Ar    8.875000    8.875000    8.875000
Ar    8.875000    8.875000   12.425000
Ar    8.875000    8.875000   15.975000
Ar    8.875000    8.875000   19.525000
Ar    8.875000    8.875000   23.075000
Ar    8.875000    8.875000   26.625000
Ar    8.875000   12.425000    1.775000
Ar    8.875000   12.425000    5.325000
Ar    8.875000   12.425000    8.875000
Ar    8.875000   12.425000   12.425000
Ar    8.875000   12.425000   15.975000
Ar    8.875000   12.425000   19.525000
Ar    8.875000   12.425000   23.075000
Ar    8.875000   12.425000   26.625000
Ar    8.875000   15.975000    1.775000
Ar    8.875000   15.975000    5.325000
Ar    8.875000   15.975000    8.875000
Ar    8.875000   15.975000   12.425000
Ar    8.875000   15.975000   15.975000
Ar    8.875000   15.975000   19.525000
Ar    8.875000   15.975000   23.075000
Ar    8.875000   15.975000   26.625000
Ar    8.875000   19.525000    1.775000
Ar    8.875000   19.525000    5.325000
Ar    8.875000   19.525000    8.875000
Ar    8.875000   19.525000   12.425000
Ar    8.875000   19.525000   15.975000
Ar    8.875000   19.525000   19.525000
Ar    8.875000   19.525000   23.075000
Ar    8.875000   19.525000   26.625000
Ar    8.875000   23.075000    1.775000
Ar    8.875000   23.075000    5.325000
Ar    8.875000   23.075000    8.875000
Ar    8.875000   23.075000   12.425000
Ar    8.875000   23.075000   15.975000
Ar    8.875000   23.075000   19.525000
Ar    8.875000   23.075000   23.075000
Ar    8.875000   23.075000   26.625000
Ar    8.875000   26.625000    1.775000
Ar    8.875000   26.625000    5.325000
Ar    8.875000   26.625000    8.875000
Ar    8.875000   26.625000   12.425000
Ar    8.875000   26.625000   15.975000
Ar    8.875000   26.625000   19.525000
Ar    8.875000   26.625000   23.075000
Ar    8.875000   26.625000   26.625000
Ar   12.425000    1.775000    1.775000
Ar   12.425000    1.775000    5.325000
Ar   12.425000    1.775000    8.875000
Ar   12.425000    1.775000   12.425000
Ar   12.425000    1.775000   15.975000
Ar   12.425000    1.775000   19.525000
Ar   12.425000    1.775000   23.075000
Ar   12.425000    1.775000   26.625000
Ar   12.425000    5.325000    1.775000
Ar   12.425000    5.325000    5.325000
Ar   12.425000    5.325000    8.875000
Ar   12.425000    5.325000   12.425000
Ar   12.425000    5.325000   15.975000
Ar   12.425000    5.325000   19.525000
Ar   12.425000    5.325000   23.075000
Ar   12.425000    5.325000   26.625000
Ar   12.425000    8.875000    1.775000
Ar   12.425000    8.875000    5.325000
Ar   12.425000    8.875000    8.875000
Ar   12.425000    8.875000   12.425000
Ar   12.425000    8.875000   15.975000
Ar   12.425000    8.875000   19.525000
Ar   12.425000    8.875000   23.075000
Ar   12.425000    8.875000   26.625000
Ar   12.425000   12.425000    1.775000
Ar   12.425000   12.425000    5.325000
Ar   12.425000   12.425000    8.875000
Ar   12.425000   12.425000   12.425000
Ar   12.425000   12.425000   15.975000
Ar   12.425000   12.425000   19.525000
Ar   12.425000   12.425000   23.075000
Ar   12.425000   12.425000   26.625000
Ar   12.425000   15.975000    1.775000
Ar   12.425000   15.975000    5.325000
Ar   12.425000   15.975000    8.875000
Ar   12.425000   15.975000   12.425000
Ar   12.425000   15.975000   15.975000
Ar   12.425000   15.975000   19.525000
Ar   12.425000   15.975000   23.075000
Ar   12.425000   15.975000   26.625000
Ar   12.425000   19.525000    1.775000
Ar   12.425000   19.525000    5.325000
Ar   12.425000   19.525000    8.875000
Ar   12.425000   19.525000   12.425000
Ar   12.425000   19.525000   15.975000
Ar   12.425000   19.525000   19.525000
Ar   12.425000   19.525000   23.075000
Ar   12.425000   19.525000   26.625000
Ar   12.425000   23.075000    1.775000
Ar   12.425000   23.075000    5.325000
Ar   12.425000   23.075000    8.875000
Ar   12.425000   23.075000   12.425000
Ar   12.425000   23.075000   15.975000
Ar   12.425000   23.075000   19.525000
Ar   12.425000   23.075000   23.075000
Ar   12.425000   23.075000   26.625000
Ar   12.425000   26.625000    1.775000
Ar   12.425000   26.625000    5.325000
Ar   12.425000   26.625000    8.875000
Ar   12.425000   26.625000   12.425000
Ar   12.425000   26.625000   15.975000
Ar   12.425000   26.625000   19.525000
Ar   12.425000   26.625000   23.075000
Ar   12.425000   26.625000   26.625000
Ar   15.975000    1.775000    1.775000
Ar   15.975000    1.775000    5.325000
Ar   15.975000    1.775000    8.875000
Ar   15.975000    1.775000   12.425000
Ar   15.975000    1.775000   15.975000
Ar   15.975000    1.775000   19.525000
Ar   15.975000    1.775000   23.075000
Ar   15.975000    1.775000   26.625000
Ar   15.975000    5.325000    1.775000
Ar   15.975000    5.325000    5.325000
Ar   15.975000    5.325000    8.875000
Ar   15.975000    5.325000   12.425000
Ar   15.975000    5.325000   15.975000
Ar   15.975000    5.325000   19.525000
Ar   15.975000    5.325000   23.075000
Ar   15.975000    5.325000   26.625000
Ar   15.975000    8.875000    1.775000
Ar   15.975000    8.875000    5.325000
Ar   15.975000    8.875000    8.875000
Ar   15.975000    8.875000   12.425000
Ar   15.975000    8.875000   15.975000
Ar   15.975000    8.875000   19.525000
Ar   15.975000    8.875000   23.075000
Ar   15.975000    8.875000   26.625000
Ar   15.975000   12.425000    1.775000
Ar   15.975000   12.425000    5.325000
Ar   15.975000   12.425000    8.875000
Ar   15.975000   12.425000   12.425000
Ar   15.975000   12.425000   15.975000
Ar   15.975000   12.425000   19.525000
Ar   15.975000   12.425000   23.075000
Ar   15.975000   12.425000   26.625000
Ar   15.975000   15.975000    1.775000
Ar   15.975000   15.975000    5.325000
Ar   15.975000   15.975000    8.875000
Ar   15.975000   15.975000   12.425000
Ar   15.975000   15.975000   15.975000
Ar   15.975000   15.975000   19.525000
Ar   15.975000   15.975000   23.075000
Ar   15.975000   15.975000   26.625000
Ar   15.975000   19.525000    1.775000
Ar   15.975000   19.525000    5.325000
Ar   15.975000   19.525000    8.875000
Ar   15.975000   19.525000   12.425000
Ar   15.975000   19.525000   15.975000
Ar   15.975000   19.525000   19.525000
Ar   15.975000   19.525000   23.075000
Ar   15.975000   19.525000   26.625000
Ar   15.975000   23.075000    1.775000
Ar   15.975000   23.075000    5.325000
Ar   15.975000   23.075000    8.875000
Ar   15.975000   23.075000   12.425000
Ar   15.975000   23.075000   15.975000
Ar   15.975000   23.075000   19.525000
Ar   15.975000   23.075000   23.075000
Ar   15.975000   23.075000   26.625000
Ar   15.975000   26.625000    1.775000
Ar   15.975000   26.625000    5.325000
Ar   15.975000   26.625000    8.875000
Ar   15.975000   26.625000   12.425000
Ar   15.975000   26.625000   15.975000
Ar   15.975000   26.625000   19.525000
Ar   15.975000   26.625000   23.075000
Ar   15.975000   26.625000   26.625000
Ar   19.525000    1.775000    1.775000
Ar   19.525000    1.775000    5.325000
Ar   19.525000    1.775000    8.875000
Ar   19.525000    1.775000   12.425000
Ar   19.525000    1.775000   15.975000
Ar   19.525000    1.775000   19.525000
Ar   19.525000    1.775000   23.075000
Ar   19.525000    1.775000   26.625000
Ar   19.525000    5.325000    1.775000
Ar   19.525000    5.325000    5.325000
Ar   19.525000    5.325000    8.875000
Ar   19.525000    5.325000   12.425000
Ar   19.525000    5.325000   15.975000
Ar   19.525000    5.325000   19.525000
Ar   19.525000    5.325000   23.075000
Ar   19.525000    5.325000   26.625000
Ar   19.525000    8.875000    1.775000
Ar   19.525000    8.875000    5.325000
Ar   19.525000    8.875000    8.875000
Ar   19.525000    8.875000   12.425000
Ar   19.525000    8.875000   15.975000
Ar   19.525000    8.875000   19.525000
Ar   19.525000    8.875000   23.075000
Ar   19.525000    8.875000   26.625000
Ar   19.525000   12.425000    1.775000
Ar   19.525000   12.425000    5.325000
Ar   19.525000   12.425000    8.875000
Ar   19.525000   12.425000   12.425000
Ar   19.525000   12.425000   15.975000
Ar   19.525000   12.425000   19.525000
Ar   19.525000   12.425000   23.075000
Ar   19.525000   12.425000   26.625000
Ar   19.525000   15.975000    1.775000
Ar   19.525000   15.975000    5.325000
Ar   19.525000   15.975000    8.875000
Ar   19.525000   15.975000   12.425000
Ar   19.525000   15.975000   15.975000
Ar   19.525000   15.975000   19.525000
Ar   19.525000   15.975000   23.075000
Ar   19.525000   15.975000   26.625000
Ar   19.525000   19.525000    1.775000
Ar   19.525000   19.525000    5.325000
Ar   19.525000   19.525000    8.875000
Ar   19.525000   19.525000   12.425000
Ar   19.525000   19.525000   15.975000
Ar   19.525000   19.525000   19.525000
Ar   19.525000   19.525000   23.075000
Ar   19.525000   19.525000   26.625000
Ar   19.525000   23.075000    1.775000
Ar   19.525000   23.075000    5.325000
Ar   19.525000   23.075000    8.875000
Ar   19.525000   23.075000   12.425000
Ar   19.525000   23.075000   15.975000
Ar   19.525000   23.075000   19.525000
Ar   19.525000   23.075000   23.075000
Ar   19.525000   23.075000   26.625000
Ar   19.525000   26.625000    1.775000
Ar   19.525000   26.625000    5.325000
Ar   19.525000   26.625000    8.875000
Ar   19.525000   26.625000   12.425000
Ar   19.525000   26.625000   15.975000
Ar   19.525000   26.625000   19.525000
Ar   19.525000   26.625000   23.075000
Ar   19.525000   26.625000   26.625000
Ar   23.075000    1.775000    1.775000
Ar   23.075000    1.775000    5.325000
Ar   23.075000    1.775000    8.875000
Ar   23.075000    1.775000   12.425000
Ar   23.075000    1.775000   15.975000
Ar   23.075000    1.775000   19.525000
Ar   23.075000    1.775000   23.075000
Ar   23.075000    1.775000   26.625000
Ar   23.075000    5.325000    1.775000
Ar   23.075000    5.325000    5.325000
Ar   23.075000    5.325000    8.875000
Ar   23.075000    5.325000   12.425000
Ar   23.075000    5.325000   15.975000
Ar   23.075000    5.325000   19.525000
Ar   23.075000    5.325000   23.075000
Ar   23.075000    5.325000   26.625000
Ar   23.075000    8.875000    1.775000
Ar   23.075000    8.875000    5.325000
Ar   23.075000    8.875000    8.875000
Ar   23.075000    8.875000   12.425000
Ar   23.075000    8.875000   15.975000
Ar   23.075000    8.875000   19.525000
Ar   23.075000    8.875000   23.075000
Ar   23.075000    8.875000   26.625000
Ar   23.075000   12.425000    1.775000
Ar   23.075000   12.425000    5.325000
Ar   23.075000   12.425000    8.875000
Ar   23.075000   12.425000   12.425000
Ar   23.075000   12.425000   15.975000
Ar   23.075000   12.425000   19.525000
Ar   23.075000   12.425000   23.075000
Ar   23.075000   12.425000   26.625000
Ar   23.075000   15.975000    1.775000
Ar   23.075000   15.975000    5.325000
Ar   23.075000   15.975000    8.875000
Ar   23.075000   15.975000   12.425000
Ar   23.075000   15.975000   15.975000
Ar   23.075000   15.975000   19.525000
Ar   23.075000   15.975000   23.075000
Ar   23.075000   15.975000   26.625000
Ar   23.075000   19.525000    1.775000
Ar   23.075000   19.525000    5.325000
Ar   23.075000   19.525000    8.875000
Ar   23.075000   19.525000   12.425000
Ar   23.075000   19.525000   15.975000
Ar   23.075000   19.525000   19.525000
Ar   23.075000   19.525000   23.075000
Ar   23.075000   19.525000   26.625000
Ar   23.075000   23.075000    1.775000
Ar   23.075000   23.075000    5.325000
Ar   23.075000   23.075000    8.875000
Ar   23.075000   23.075000   12.425000
Ar   23.075000   23.075000   15.975000
Ar   23.075000   23.075000   19.525000
Ar   23.075000   23.075000   23.075000
Ar   23.075000   23.075000   26.625000
Ar   23.075000   26.625000    1.775000
Ar   23.075000   26.625000    5.325000
Ar   23.075000   26.625000    8.875000
Ar   23.075000   26.625000   12.425000
Ar   23.075000   26.625000   15.975000
Ar   23.075000   26.625000   19.525000
Ar   23.075000   26.625000   23.075000
Ar   23.075000   26.625000   26.625000
Ar   26.625000    1.775000    1.775000
Ar   26.625000    1.775000    5.325000
Ar   26.625000    1.775000    8.875000
Ar   26.625000    1.775000   12.425000
Ar   26.625000    1.775000   15.975000
Ar   26.625000    1.775000   19.525000
Ar   26.625000    1.775000   23.075000
Ar   26.625000    1.775000   26.625000
Ar   26.625000    5.325000    1.775000
Ar   26.625000    5.325000    5.325000
Ar   26.625000    5.325000    8.875000
Ar   26.625000    5.325000   12.425000
Ar   26.625000    5.325000   15.975000
Ar   26.625000    5.325000   19.525000
Ar   26.625000    5.325000   23.075000
Ar   26.625000    5.325000   26.625000
Ar   26.625000    8.875000    1.775000
Ar   26.625000    8.875000    5.325000
Ar   26.625000    8.875000    8.875000
Ar   26.625000    8.875000   12.425000
Ar   26.625000    8.875000   15.975000
Ar   26.625000    8.875000   19.525000
Ar   26.625000    8.875000   23.075000
Ar   26.625000    8.875000   26.625000
Ar   26.625000   12.425000    1.775000
Ar   26.625000   12.425000    5.325000
Ar   26.625000   12.425000    8.875000
Ar   26.625000   12.425000   12.425000
Ar   26.625000   12.425000   15.975000
Ar   26.625000   12.425000   19.525000
Ar   26.625000   12.425000   23.075000
Ar   26.625000   12.425000   26.625000
Ar   26.625000   15.975000    1.775000
Ar   26.625000   15.975000    5.325000
Ar   26.625000   15.975000    8.875000
Ar   26.625000   15.975000   12.425000
Ar   26.625000   15.975000   15.975000
Ar   26.625000   15.975000   19.525000
Ar   26.625000   15.975000   23.075000
Ar   26.625000   15.975000   26.625000
Ar   26.625000   19.525000    1.775000
Ar   26.625000   19.525000    5.325000
Ar   26.625000   19.525000    8.875000
Ar   26.625000   19.525000   12.425000
Ar   26.625000   19.525000   15.975000
Ar   26.625000   19.525000   19.525000
Ar   26.625000   19.525000   23.075000
Ar   26.625000   19.525000   26.625000
Ar   26.625000   23.075000    1.775000
Ar   26.625000   23.075000    5.325000
Ar   26.625000   23.075000    8.875000
Ar   26.625000   23.075000   12.425000
Ar   26.625000   23.075000   15.975000
Ar   26.625000   23.075000   19.525000
Ar   26.625000   23.075000   23.075000
Ar   26.625000   23.075000   26.625000
Ar   26.625000   26.625000    1.775000
Ar   26.625000   26.625000    5.325000
Ar   26.625000   26.625000    8.875000
Ar   26.625000   26.625000   12.425000
Ar   26.625000   26.625000   15.975000
Ar   26.625000   26.625000   19.525000
Ar   26.625000   26.625000   23.075000
Ar   26.625000   26.625000   26.625000
512 
Step 5 , box:   28.400    28.400    28.400
Ar    1.773822    1.775004    1.774076
Ar    1.775810    1.774696    5.323894
Ar    1.775693    1.775562    8.876060
Ar    1.775404    1.774730   12.424644
Ar    1.775423    1.774242   15.975504
Ar    1.774707    1.774828   19.525782
Ar    1.775883    1.775800   23.075392
Ar    1.774526    1.774167   26.624667
Ar    1.774714    5.324908    1.774684
Ar    1.775341    5.324110    5.325214
Ar    1.774934    5.325903    8.875186
Ar    1.774212    5.324639   12.424558
Ar    1.773941    5.325414   15.974423
Ar    1.775056    5.325414   19.525228
Ar    1.774061    5.324757   23.074065
Ar    1.774082    5.324266   26.625273
Ar    1.775780    8.874473    1.774547
Ar    1.774872    8.874931    5.324152
Ar    1.774899    8.875699    8.874206
Ar    1.775285    8.874727   12.424790
Ar    1.775912    8.874765   15.973977
Ar    1.775672    8.875233   19.525009
Ar    1.774551    8.874649   23.073885
Ar    1.775792    8.874256   26.624271
Ar    1.775962   12.424501    1.774258
Ar    1.775184   12.424768    5.324204
Ar    1.774700   12.424931    8.873918
Ar    1.775188   12.424414   12.425518
Ar    1.775263   12.425784   15.973878
Ar    1.775034   12.425861   19.524081
Ar    1.773938   12.423956   23.074624
Ar    1.773947   12.425346   26.625927
Ar    1.775217   15.974090    1.775087
Ar    1.776067   15.975783    5.324915
Ar    1.774097   15.975815    8.874381
Ar    1.773902   15.973847   12.424736
Ar    1.775135   15.975645   15.975981
Ar    1.776045   15.974537   19.524775
Ar    1.774527   15.974094   23.075851
Ar    1.773933   15.974427   26.625842
Ar    1.775417   19.525056    1.776101
Ar    1.775443   19.525586    5.324930
Ar    1.775169   19.524886    8.875030
Ar    1.774708   19.524827   12.424746
Ar    1.774136   19.526062   15.975441
Ar    1.775527   19.523844   19.524852
Ar    1.774695   19.525953   23.074945
Ar    1.774305   19.524850   26.624077
Ar    1.775075   23.075451    1.776169
Ar    1.774935   23.075394    5.324054
Ar    1.775826   23.074470    8.876018
Ar    1.774492   23.075596   12.424640
Ar    1.775993   23.075768   15.975377
Ar    1.776034   23.075899   19.524998
Ar    1.775904   23.075170   23.073942
Ar    1.774906   23.075412   26.624807
Ar    1.776022   26.624766    1.774484
Ar    1.775341   26.624353    5.326075
Ar    1.775765   26.623983    8.875095
Ar    1.774852   26.624948   12.424388
Ar    1.776085   26.625750   15.974696
Ar    1.774639   26.624642   19.526026
Ar    1.775160   26.624542   23.076057
Ar    1.774507   26.625896   26.625733
Ar    5.324918    1.773850    1.774734
Ar    5.324656    1.774567    5.325497
Ar    5.324518    1.775824    8.874349
Ar    5.324163    1.775238   12.426098
Ar    5.324114    1.774510   15.974520
Ar    5.325992    1.775274   19.525922
Ar    5.325288    1.774659   23.075033
Ar    5.325214    1.774541   26.625147
Ar    5.324672    5.324046    1.775029
Ar    5.325467    5.324595    5.325284
Ar    5.324103    5.324788    8.875350
Ar    5.325625    5.325682   12.424410
Ar    5.325775    5.324629   15.975446
Ar    5.324898    5.325060   19.525458
Ar    5.325962    5.323960   23.074970
Ar    5.325134    5.325388   26.624659
Ar    5.324880    8.874463    1.773920
Ar    5.325425    8.874577    5.324156
Ar    5.326132    8.874017    8.875812
Ar    5.324093    8.875423   12.425800
Ar    5.324049    8.874513   15.975636
Ar    5.326097    8.874432   19.525684
Ar    5.324158    8.875198   23.074103
Ar    5.324058    8.874758   26.624124
Ar    5.325898   12.425142    1.774671
Ar    5.325996   12.425742    5.324185
Ar    5.323989   12.426083    8.874714
Ar    5.325892   12.426082   12.423901
Ar    5.324612   12.425368   15.974455
Ar    5.323838   12.424166   19.525357
Ar    5.325486   12.425234   23.073970
Ar    5.325880   12.425392   26.624631
Ar    5.325865   15.975358    1.774122
Ar    5.323924   15.975723    5.325807
Ar    5.325904   15.974384    8.875429
Ar    5.324998   15.975032   12.424869
Ar    5.325093   15.974948   15.974767
Ar    5.324830   15.974926   19.526045
Ar    5.324474   15.974950   23.074650
Ar    5.325448   15.975007   26.625010
Ar    5.323941   19.525959    1.774817
Ar    5.323919   19.526054    5.325101
Ar    5.325336   19.524800    8.875808
Ar    5.324391   19.525526   12.424677
Ar    5.323844   19.525593   15.975222
Ar    5.324312   19.525439   19.524806
Ar    5.325123   19.523857   23.075183
Ar    5.324807   19.524916   26.625089
Ar    5.325710   23.076123    1.776078
Ar    5.324628   23.076092    5.324914
Ar    5.324042   23.074634    8.874721
Ar    5.324154   23.075700   12.425367
Ar    5.324273   23.075043   15.974216
Ar    5.324306   23.074497   19.525550
Ar    5.324006   23.075821   23.074737
Ar    5.325325   23.074757   26.624513
Ar    5.324276   26.624719    1.775364
Ar    5.325897   26.624465    5.325294
Ar    5.325132   26.625223    8.874710
Ar    5.324517   26.625551   12.425761
Ar    5.324004   26.625560   15.974924
Ar    5.324180   26.626046   19.524712
Ar    5.324426   26.625892   23.076110
Ar    5.324613   26.623929   26.624252
Ar    8.874257    1.775086    1.775964
Ar    8.873853    1.775837    5.325023
Ar    8.875304    1.774902    8.875972
Ar    8.874371    1.774129   12.423992
Ar    8.874776    1.775111   15.974923
Ar    8.875613    1.774083   19.525121
Ar    8.875946    1.774635   23.074436
Ar    8.874468    1.774425   26.624075
Ar    8.874862    5.324035    1.775583
Ar    8.875866    5.325334    5.325155
Ar    8.876083    5.324360    8.874412
Ar    8.875703    5.324688   12.424967
Ar    8.875049    5.325591   15.974976
Ar    8.875144    5.326006   19.524535
Ar    8.874078    5.325660   23.075233
Ar    8.873820    5.324391   26.626167
Ar    8.875775    8.873934    1.774364
Ar    8.874414    8.874367    5.325523
Ar    8.875682    8.874102    8.874667
Ar    8.875591    8.876021   12.425553
Ar    8.875327    8.875435   15.975668
Ar    8.874583    8.874948   19.525594
Ar    8.875442    8.874578   23.075308
Ar    8.875315    8.873845   26.625444
Ar    8.875717   12.424539    1.775077
Ar    8.875566   12.424483    5.324941
Ar    8.874600   12.425715    8.876179
Ar    8.875977   12.424682   12.425725
Ar    8.876015   12.425049   15.975313
Ar    8.874019   12.425198   19.524319
Ar    8.874951   12.424035   23.075012
Ar    8.875627   12.425890   26.625771
Ar    8.875770   15.975772    1.774643
Ar    8.873923   15.975576    5.325838
Ar    8.875163   15.975265    8.874822
Ar    8.874779   15.976088   12.425572
Ar    8.874660   15.975266   15.973996
Ar    8.874782   15.974015   19.524690
Ar    8.875226   15.975880   23.074638
Ar    8.875768   15.975247   26.624487
Ar    8.873992   19.524922    1.774731
Ar    8.875089   19.525953    5.324917
Ar    8.875658   19.525475    8.875805
Ar    8.874717   19.524645   12.425526
Ar    8.874793   19.525278   15.976013
Ar    8.875336   19.524071   19.524921
Ar    8.874817   19.525528   23.075269
Ar    8.873932   19.525466   26.624775
Ar    8.875737   23.075686    1.775765
Ar    8.875058   23.074182    5.325454
Ar    8.873855   23.075594    8.874848
Ar    8.873941   23.075000   12.426177
Ar    8.873956   23.074948   15.974919
Ar    8.874942   23.075105   19.524447
Ar    8.875881   23.075316   23.075802
Ar    8.874018   23.074841   26.624232
Ar    8.874190   26.623888    1.774852
Ar    8.875399   26.623991    5.325089
Ar    8.874844   26.624784    8.874257
Ar    8.875638   26.625469   12.423912
Ar    8.874451   26.624818   15.974846
Ar    8.875445   26.624391   19.524277
Ar    8.873977   26.625163   23.075923
Ar    8.875268   26.623890   26.625804
Ar   12.424918    1.774518    1.775483
Ar   12.425020    1.774769    5.323927
Ar   12.425798    1.775167    8.875033
Ar   12.424661    1.775977   12.424925
Ar   12.425692    1.774350   15.974011
Ar   12.425180    1.776098   19.523980
Ar   12.423898    1.775573   23.074561
Ar   12.425828    1.775374   26.625347
Ar   12.424322    5.325216    1.774904
Ar   12.425481    5.325274    5.324655
Ar   12.425140    5.324593    8.874439
Ar   12.424709    5.324421   12.423990
Ar   12.425879    5.324706   15.974239
Ar   12.425395    5.324510   19.524907
Ar   12.425147    5.325825   23.073969
Ar   12.424345    5.324980   26.624310
Ar   12.425091    8.875590    1.775519
Ar   12.424401    8.875939    5.326043
Ar   12.426134    8.876105    8.875222
Ar   12.425373    8.876098   12.425702
Ar   12.424207    8.875847   15.976128
Ar   12.425953    8.875519   19.525990
Ar   12.424493    8.873882   23.075149
Ar   12.424413    8.873857   26.624486
Ar   12.424598   12.425396    1.774798
Ar   12.425058   12.424461    5.325959
Ar   12.424245   12.426055    8.874431
Ar   12.425229   12.424488   12.425749
Ar   12.424884   12.424860   15.975912
Ar   12.424334   12.426000   19.523939
Ar   12.425135   12.425992   23.075530
Ar   12.424564   12.424430   26.625150
Ar   12.425757   15.974588    1.774801
Ar   12.424768   15.974960    5.325186
Ar   12.424262   15.974172    8.874849
Ar   12.425920   15.975959   12.425099
Ar   12.425476   15.976109   15.973995
Ar   12.424383   15.975971   19.525146
Ar   12.425328   15.975682   23.074047
Ar   12.424313   15.974293   26.625162
Ar   12.425685   19.525399    1.774979
Ar   12.424533   19.525029    5.324768
Ar   12.424088   19.524185    8.875517
Ar   12.426109   19.523845   12.425721
Ar   12.425522   19.525026   15.975544
Ar   12.424510   19.524139   19.525744
Ar   12.425378   19.525932   23.074697
Ar   12.424445   19.525888   26.624224
Ar   12.425219   23.073921    1.774287
Ar   12.424068   23.074534    5.325010
Ar   12.424661   23.075485    8.875255
Ar   12.424875   23.073845   12.425943
Ar   12.423852   23.075650   15.975941
Ar   12.426080   23.074372   19.524574
Ar   12.425748   23.075476   23.075091
Ar   12.423890   23.075600   26.625783
Ar   12.424194   26.624972    1.773980
Ar   12.424954   26.624662    5.326098
Ar   12.424079   26.625693    8.874627
Ar   12.424205   26.625848   12.425938
Ar   12.424196   26.624748   15.975385
Ar   12.424899   26.624113   19.524444